
     Program PWSCF v.6.7MaX starts on 11Jun2026 at 21: 1:56 

     This program is part of the open-source Quantum ESPRESSO suite
     for quantum simulation of materials; please cite
         "P. Giannozzi et al., J. Phys.:Condens. Matter 21 395502 (2009);
         "P. Giannozzi et al., J. Phys.:Condens. Matter 29 465901 (2017);
          URL http://www.quantum-espresso.org", 
     in publications or presentations arising from this work. More details at
     http://www.quantum-espresso.org/quote

     Parallel version (MPI), running on    64 processors

     MPI processes distributed on     1 nodes
     R & G space division:  proc/nbgrp/npool/nimage =      64
     Waiting for input...
     Reading input from standard input
Warning: card K_POINTS(AUTOMATIC) ignored
Warning: card 12 12 1 0 0 0 ignored

     Current dimensions of program PWSCF are:
     Max number of different atomic species (ntypx) = 10
     Max number of k-points (npk) =  40000
     Max angular momentum in pseudopotentials (lmaxx) =  3
     file Mo.pbe-spn-rrkjus_psl.1.0.0.UPF: wavefunction(s)  4S renormalized

     gamma-point specific algorithms are used

     Subspace diagonalization in iterative solution of the eigenvalue problem:
     a serial algorithm will be used

 
     Parallelization info
     --------------------
     sticks:   dense  smooth     PW     G-vecs:    dense   smooth      PW
     Min           8       8      2                  832      832      78
     Max          10      10      4                  914      914     138
     Sum         595     595    151                55957    55957    7011
 


     bravais-lattice index     =            4
     lattice parameter (alat)  =       6.0282  a.u.
     unit-cell volume          =     892.0719 (a.u.)^3
     number of atoms/cell      =            3
     number of atomic types    =            2
     number of electrons       =        26.00
     number of Kohn-Sham states=           17
     kinetic-energy cutoff     =      60.0000  Ry
     charge density cutoff     =     240.0000  Ry
     scf convergence threshold =      1.0E-09
     mixing beta               =       0.7000
     number of iterations used =            8  plain     mixing
     energy convergence thresh.=      1.0E-05
     force convergence thresh. =      1.0E-04
     Exchange-correlation= PBE
                           (   1   4   3   4   0   0   0)
     nstep                     =           50


     celldm(1)=   6.028226  celldm(2)=   0.000000  celldm(3)=   4.702194
     celldm(4)=   0.000000  celldm(5)=   0.000000  celldm(6)=   0.000000

     crystal axes: (cart. coord. in units of alat)
               a(1) = (   1.000000   0.000000   0.000000 )  
               a(2) = (  -0.500000   0.866025   0.000000 )  
               a(3) = (   0.000000   0.000000   4.702194 )  

     reciprocal axes: (cart. coord. in units 2 pi/alat)
               b(1) = (  1.000000  0.577350  0.000000 )  
               b(2) = (  0.000000  1.154701  0.000000 )  
               b(3) = (  0.000000  0.000000  0.212667 )  


     PseudoPot. # 1 for Mo read from file:
     /public3/home/a2s002871/MoS2/pseudo/Mo.pbe-spn-rrkjus_psl.1.0.0.UPF
     MD5 check sum: 03f09b12e49601d1a456a78ce8b2d514
     Pseudo is Ultrasoft + core correction, Zval = 14.0
     Generated using &quot;atomic&quot; code by A. Dal Corso  v.6.3
     Using radial grid of 1229 points,  6 beta functions with: 
                l(1) =   0
                l(2) =   0
                l(3) =   1
                l(4) =   1
                l(5) =   2
                l(6) =   2
     Q(r) pseudized with 0 coefficients 


     PseudoPot. # 2 for S  read from file:
     /public3/home/a2s002871/MoS2/pseudo/S.pbe-n-rrkjus_psl.1.0.0.UPF
     MD5 check sum: 9d0fe39aa2a799ea84730884c9b010f4
     Pseudo is Ultrasoft + core correction, Zval =  6.0
     Generated using &quot;atomic&quot; code by A. Dal Corso  v.6.3
     Using radial grid of 1151 points,  6 beta functions with: 
                l(1) =   0
                l(2) =   0
                l(3) =   1
                l(4) =   1
                l(5) =   2
                l(6) =   2
     Q(r) pseudized with 0 coefficients 


     atomic species   valence    mass     pseudopotential
        Mo            14.00    95.95000     Mo( 1.00)
        S              6.00    32.06000     S ( 1.00)

     12 Sym. Ops. (no inversion) found



   Cartesian axes

     site n.     atom                  positions (alat units)
         1           Mo  tau(   1) = (  -0.0000000   0.5773503   2.3510972  )
         2           S   tau(   2) = (   0.5000000   0.2886751   2.5721003  )
         3           S   tau(   3) = (   0.5000000   0.2886751   2.1300940  )

     number of k points=     1  Marzari-Vanderbilt smearing, width (Ry)=  0.2000
                       cart. coord. in units 2pi/alat
        k(    1) = (   0.0000000   0.0000000   0.0000000), wk =   2.0000000

     Dense  grid:    27979 G-vectors     FFT dimensions: (  30,  30, 144)

     Estimated max dynamical RAM per process >       4.26 MB

     Estimated total dynamical RAM >     272.57 MB

     Initial potential from superposition of free atoms

     starting charge   25.99905, renormalised to   26.00000

     negative rho (up, down):  1.645E-03 0.000E+00
     Starting wfcs are   18 randomized atomic wfcs

     total cpu time spent up to now is        1.9 secs

     Self-consistent Calculation

     iteration #  1     ecut=    60.00 Ry     beta= 0.70
     Davidson diagonalization with overlap
     ethr =  1.00E-02,  avg # of iterations =  3.0

     negative rho (up, down):  1.836E-03 0.000E+00

     total cpu time spent up to now is        2.0 secs

     total energy              =    -179.10526352 Ry
     estimated scf accuracy    <       0.98902703 Ry

     iteration #  2     ecut=    60.00 Ry     beta= 0.70
     Davidson diagonalization with overlap
     ethr =  3.80E-03,  avg # of iterations = 10.0

     total cpu time spent up to now is        2.0 secs

     total energy              =    -177.94955898 Ry
     estimated scf accuracy    <      13.25929430 Ry

     iteration #  3     ecut=    60.00 Ry     beta= 0.70
     Davidson diagonalization with overlap
     ethr =  3.80E-03,  avg # of iterations = 10.0

     total cpu time spent up to now is        2.0 secs

     total energy              =    -179.54588890 Ry
     estimated scf accuracy    <       0.14682474 Ry

     iteration #  4     ecut=    60.00 Ry     beta= 0.70
     Davidson diagonalization with overlap
     ethr =  5.65E-04,  avg # of iterations =  5.0

     total cpu time spent up to now is        2.0 secs

     total energy              =    -179.56917157 Ry
     estimated scf accuracy    <       0.10474547 Ry

     iteration #  5     ecut=    60.00 Ry     beta= 0.70
     Davidson diagonalization with overlap
     ethr =  4.03E-04,  avg # of iterations =  2.0

     total cpu time spent up to now is        2.0 secs

     total energy              =    -179.57210713 Ry
     estimated scf accuracy    <       0.04477105 Ry

     iteration #  6     ecut=    60.00 Ry     beta= 0.70
     Davidson diagonalization with overlap
     ethr =  1.72E-04,  avg # of iterations =  3.0

     total cpu time spent up to now is        2.1 secs

     total energy              =    -179.56801867 Ry
     estimated scf accuracy    <       0.03256507 Ry

     iteration #  7     ecut=    60.00 Ry     beta= 0.70
     Davidson diagonalization with overlap
     ethr =  1.25E-04,  avg # of iterations =  2.0

     total cpu time spent up to now is        2.1 secs

     total energy              =    -179.56321423 Ry
     estimated scf accuracy    <       0.01630267 Ry

     iteration #  8     ecut=    60.00 Ry     beta= 0.70
     Davidson diagonalization with overlap
     ethr =  6.27E-05,  avg # of iterations = 10.0

     total cpu time spent up to now is        2.1 secs

     total energy              =    -179.56670921 Ry
     estimated scf accuracy    <       0.00150163 Ry

     iteration #  9     ecut=    60.00 Ry     beta= 0.70
     Davidson diagonalization with overlap
     ethr =  5.78E-06,  avg # of iterations =  2.0

     negative rho (up, down):  1.381E-06 0.000E+00

     total cpu time spent up to now is        2.1 secs

     total energy              =    -179.56622738 Ry
     estimated scf accuracy    <       0.00176312 Ry

     iteration # 10     ecut=    60.00 Ry     beta= 0.70
     Davidson diagonalization with overlap
     ethr =  5.78E-06,  avg # of iterations =  5.0

     negative rho (up, down):  1.849E-05 0.000E+00

     total cpu time spent up to now is        2.1 secs

     total energy              =    -179.56638704 Ry
     estimated scf accuracy    <       0.00134488 Ry

     iteration # 11     ecut=    60.00 Ry     beta= 0.70
     Davidson diagonalization with overlap
     ethr =  5.17E-06,  avg # of iterations =  2.0

     negative rho (up, down):  1.565E-04 0.000E+00

     total cpu time spent up to now is        2.1 secs

     total energy              =    -179.56637165 Ry
     estimated scf accuracy    <       0.00071727 Ry

     iteration # 12     ecut=    60.00 Ry     beta= 0.70
     Davidson diagonalization with overlap
     ethr =  2.76E-06,  avg # of iterations =  5.0

     negative rho (up, down):  2.386E-04 0.000E+00

     total cpu time spent up to now is        2.1 secs

     total energy              =    -179.56637559 Ry
     estimated scf accuracy    <       0.00025752 Ry

     iteration # 13     ecut=    60.00 Ry     beta= 0.70
     Davidson diagonalization with overlap
     ethr =  9.90E-07,  avg # of iterations =  5.0

     negative rho (up, down):  2.421E-04 0.000E+00

     total cpu time spent up to now is        2.2 secs

     total energy              =    -179.56637578 Ry
     estimated scf accuracy    <       0.00009049 Ry

     iteration # 14     ecut=    60.00 Ry     beta= 0.70
     Davidson diagonalization with overlap
     ethr =  3.48E-07,  avg # of iterations =  5.0

     negative rho (up, down):  2.424E-04 0.000E+00

     total cpu time spent up to now is        2.2 secs

     total energy              =    -179.56638030 Ry
     estimated scf accuracy    <       0.00001926 Ry

     iteration # 15     ecut=    60.00 Ry     beta= 0.70
     Davidson diagonalization with overlap
     ethr =  7.41E-08,  avg # of iterations =  6.0

     negative rho (up, down):  2.533E-04 0.000E+00

     total cpu time spent up to now is        2.2 secs

     total energy              =    -179.56638059 Ry
     estimated scf accuracy    <       0.00000714 Ry

     iteration # 16     ecut=    60.00 Ry     beta= 0.70
     Davidson diagonalization with overlap
     ethr =  2.75E-08,  avg # of iterations =  5.0

     negative rho (up, down):  2.586E-04 0.000E+00

     total cpu time spent up to now is        2.2 secs

     total energy              =    -179.56638103 Ry
     estimated scf accuracy    <       0.00000116 Ry

     iteration # 17     ecut=    60.00 Ry     beta= 0.70
     Davidson diagonalization with overlap
     ethr =  4.46E-09,  avg # of iterations =  7.0

     negative rho (up, down):  2.582E-04 0.000E+00

     total cpu time spent up to now is        2.2 secs

     total energy              =    -179.56638121 Ry
     estimated scf accuracy    <       0.00000004 Ry

     iteration # 18     ecut=    60.00 Ry     beta= 0.70
     Davidson diagonalization with overlap
     ethr =  1.68E-10,  avg # of iterations =  9.0

     negative rho (up, down):  2.547E-04 0.000E+00

     total cpu time spent up to now is        2.3 secs

     total energy              =    -179.56638122 Ry
     estimated scf accuracy    <       0.00000001 Ry

     iteration # 19     ecut=    60.00 Ry     beta= 0.70
     Davidson diagonalization with overlap
     ethr =  5.67E-11,  avg # of iterations =  5.0

     negative rho (up, down):  2.558E-04 0.000E+00

     total cpu time spent up to now is        2.3 secs

     total energy              =    -179.56638123 Ry
     estimated scf accuracy    <          1.7E-09 Ry

     iteration # 20     ecut=    60.00 Ry     beta= 0.70
     Davidson diagonalization with overlap
     ethr =  6.56E-12,  avg # of iterations =  7.0

     negative rho (up, down):  2.556E-04 0.000E+00

     total cpu time spent up to now is        2.3 secs

     End of self-consistent calculation

          k = 0.0000 0.0000 0.0000 (  3506 PWs)   bands (ev):

   -61.6256 -36.8534 -36.8534 -35.2464 -23.9959 -12.3978 -12.3978 -12.2564
    -9.6265  -4.9911  -4.9911   0.3095   2.5350   2.5350   2.8851   3.5401
     4.8220

     the Fermi energy is     2.2342 ev

!    total energy              =    -179.56638123 Ry
     estimated scf accuracy    <          8.5E-11 Ry
     smearing contrib. (-TS)   =      -0.24460895 Ry
     internal energy E=F+TS    =    -179.32177228 Ry

     The total energy is F=E-TS. E is the sum of the following terms:
     one-electron contribution =    -910.09398247 Ry
     hartree contribution      =     454.71721219 Ry
     xc contribution           =     -31.60202671 Ry
     ewald contribution        =     307.65702471 Ry

     convergence has been achieved in  20 iterations

     negative rho (up, down):  2.556E-04 0.000E+00

     Forces acting on atoms (cartesian axes, Ry/au):

     atom    1 type  1   force =     0.00000000   -0.00000000    0.00000000
     atom    2 type  2   force =     0.00000000    0.00000000    2.67131523
     atom    3 type  2   force =     0.00000000    0.00000000   -2.67131523

     Total force =     3.777810     Total SCF correction =     0.000006

     BFGS Geometry Optimization
     Energy error            =      0.0E+00
     Gradient error          =      2.7E+00

     number of scf cycles    =   1
     number of bfgs steps    =   0

     energy   new            =    -179.5663812256 Ry

     new trust radius        =       0.5000000000 bohr
     new conv_thr            =       0.0000000010 Ry


ATOMIC_POSITIONS (crystal)
Mo            0.3333333330        0.6666666670        0.5000000000
S             0.6666666670        0.3333333330        0.5646392404
S             0.6666666670        0.3333333330        0.4353607596



     Writing output data file ./tmp/MoS2.save/
     NEW-OLD atomic charge density approx. for the potential

     negative rho (up, down):  2.530E-04 0.000E+00

     total cpu time spent up to now is        2.4 secs

     Self-consistent Calculation

     iteration #  1     ecut=    60.00 Ry     beta= 0.70
     Davidson diagonalization with overlap
     ethr =  1.00E-06,  avg # of iterations = 11.0

     negative rho (up, down):  3.135E-04 0.000E+00

     total cpu time spent up to now is        2.4 secs

     total energy              =    -180.69323425 Ry
     estimated scf accuracy    <       0.22900675 Ry

     iteration #  2     ecut=    60.00 Ry     beta= 0.70
     Davidson diagonalization with overlap
     ethr =  8.81E-04,  avg # of iterations =  2.0

     negative rho (up, down):  4.794E-04 0.000E+00

     total cpu time spent up to now is        2.4 secs

     total energy              =    -180.68951225 Ry
     estimated scf accuracy    <       0.21802748 Ry

     iteration #  3     ecut=    60.00 Ry     beta= 0.70
     Davidson diagonalization with overlap
     ethr =  8.39E-04,  avg # of iterations =  2.0

     negative rho (up, down):  2.272E-04 0.000E+00

     total cpu time spent up to now is        2.4 secs

     total energy              =    -180.74090079 Ry
     estimated scf accuracy    <       0.06335035 Ry

     iteration #  4     ecut=    60.00 Ry     beta= 0.70
     Davidson diagonalization with overlap
     ethr =  2.44E-04,  avg # of iterations =  2.0

     negative rho (up, down):  2.898E-04 0.000E+00

     total cpu time spent up to now is        2.5 secs

     total energy              =    -180.75151481 Ry
     estimated scf accuracy    <       0.00269292 Ry

     iteration #  5     ecut=    60.00 Ry     beta= 0.70
     Davidson diagonalization with overlap
     ethr =  1.04E-05,  avg # of iterations =  4.0

     negative rho (up, down):  3.455E-04 0.000E+00

     total cpu time spent up to now is        2.5 secs

     total energy              =    -180.75220331 Ry
     estimated scf accuracy    <       0.00017455 Ry

     iteration #  6     ecut=    60.00 Ry     beta= 0.70
     Davidson diagonalization with overlap
     ethr =  6.71E-07,  avg # of iterations =  4.0

     negative rho (up, down):  3.575E-04 0.000E+00

     total cpu time spent up to now is        2.5 secs

     total energy              =    -180.75224032 Ry
     estimated scf accuracy    <       0.00003408 Ry

     iteration #  7     ecut=    60.00 Ry     beta= 0.70
     Davidson diagonalization with overlap
     ethr =  1.31E-07,  avg # of iterations = 16.0

     negative rho (up, down):  3.899E-04 0.000E+00

     total cpu time spent up to now is        2.5 secs

     total energy              =    -180.75484656 Ry
     estimated scf accuracy    <       0.00065873 Ry

     iteration #  8     ecut=    60.00 Ry     beta= 0.70
     Davidson diagonalization with overlap
     ethr =  1.31E-07,  avg # of iterations =  3.0

     negative rho (up, down):  3.552E-04 0.000E+00

     total cpu time spent up to now is        2.5 secs

     total energy              =    -180.75487615 Ry
     estimated scf accuracy    <       0.00034858 Ry

     iteration #  9     ecut=    60.00 Ry     beta= 0.70
     Davidson diagonalization with overlap
     ethr =  1.31E-07,  avg # of iterations =  2.0

     negative rho (up, down):  6.038E-04 0.000E+00

     total cpu time spent up to now is        2.5 secs

     total energy              =    -180.75477537 Ry
     estimated scf accuracy    <       0.00038745 Ry

     iteration # 10     ecut=    60.00 Ry     beta= 0.70
     Davidson diagonalization with overlap
     ethr =  1.31E-07,  avg # of iterations =  4.0

     negative rho (up, down):  8.498E-04 0.000E+00

     total cpu time spent up to now is        2.6 secs

     total energy              =    -180.75477056 Ry
     estimated scf accuracy    <       0.00008249 Ry

     iteration # 11     ecut=    60.00 Ry     beta= 0.70
     Davidson diagonalization with overlap
     ethr =  1.31E-07,  avg # of iterations =  5.0

     negative rho (up, down):  1.063E-03 0.000E+00

     total cpu time spent up to now is        2.6 secs

     total energy              =    -180.75477341 Ry
     estimated scf accuracy    <       0.00000850 Ry

     iteration # 12     ecut=    60.00 Ry     beta= 0.70
     Davidson diagonalization with overlap
     ethr =  3.27E-08,  avg # of iterations =  4.0

     negative rho (up, down):  1.034E-03 0.000E+00

     total cpu time spent up to now is        2.6 secs

     total energy              =    -180.75477515 Ry
     estimated scf accuracy    <       0.00000059 Ry

     iteration # 13     ecut=    60.00 Ry     beta= 0.70
     Davidson diagonalization with overlap
     ethr =  2.29E-09,  avg # of iterations =  5.0

     negative rho (up, down):  1.028E-03 0.000E+00

     total cpu time spent up to now is        2.6 secs

     total energy              =    -180.75477522 Ry
     estimated scf accuracy    <       0.00000007 Ry

     iteration # 14     ecut=    60.00 Ry     beta= 0.70
     Davidson diagonalization with overlap
     ethr =  2.52E-10,  avg # of iterations =  5.0

     negative rho (up, down):  1.025E-03 0.000E+00

     total cpu time spent up to now is        2.6 secs

     total energy              =    -180.75477524 Ry
     estimated scf accuracy    <          3.8E-09 Ry

     iteration # 15     ecut=    60.00 Ry     beta= 0.70
     Davidson diagonalization with overlap
     ethr =  1.47E-11,  avg # of iterations =  5.0

     negative rho (up, down):  1.026E-03 0.000E+00

     total cpu time spent up to now is        2.7 secs

     End of self-consistent calculation

          k = 0.0000 0.0000 0.0000 (  3506 PWs)   bands (ev):

   -60.3759 -35.0091 -35.0040 -34.5459 -18.8013 -12.6814  -8.6073  -7.8980
    -7.8938  -4.1016  -4.0875   1.0800   2.2970   2.4143   2.4177   3.0948
     4.7755

     the Fermi energy is     2.1508 ev

!    total energy              =    -180.75477524 Ry
     estimated scf accuracy    <          8.6E-10 Ry
     smearing contrib. (-TS)   =      -0.27866450 Ry
     internal energy E=F+TS    =    -180.47611073 Ry

     The total energy is F=E-TS. E is the sum of the following terms:
     one-electron contribution =    -850.83851337 Ry
     hartree contribution      =     426.28213180 Ry
     xc contribution           =     -30.85013906 Ry
     ewald contribution        =     274.93040990 Ry

     convergence has been achieved in  15 iterations

     negative rho (up, down):  1.026E-03 0.000E+00

     Forces acting on atoms (cartesian axes, Ry/au):

     atom    1 type  1   force =     0.00000000    0.00000000    0.00000000
     atom    2 type  2   force =     0.00000000    0.00000000    0.53964095
     atom    3 type  2   force =    -0.00000000    0.00000000   -0.53964095

     Total force =     0.763168     Total SCF correction =     0.000074
     Energy error            =      1.2E+00
     Gradient error          =      5.4E-01

     number of scf cycles    =   2
     number of bfgs steps    =   1

     energy   old            =    -179.5663812256 Ry
     energy   new            =    -180.7547752372 Ry

     CASE: energy  _new < energy  _old

     new trust radius        =       0.1265767834 bohr
     new conv_thr            =       0.0000000010 Ry


ATOMIC_POSITIONS (crystal)
Mo            0.3333333330        0.6666666670        0.5000000000
S             0.6666666670        0.3333333330        0.5691046770
S             0.6666666670        0.3333333330        0.4308953230



     Writing output data file ./tmp/MoS2.save/
     NEW-OLD atomic charge density approx. for the potential

     negative rho (up, down):  1.025E-03 0.000E+00

     total cpu time spent up to now is        2.7 secs

     Self-consistent Calculation

     iteration #  1     ecut=    60.00 Ry     beta= 0.70
     Davidson diagonalization with overlap
     ethr =  1.00E-06,  avg # of iterations =  9.0

     negative rho (up, down):  1.090E-03 0.000E+00

     total cpu time spent up to now is        2.7 secs

     total energy              =    -180.87350853 Ry
     estimated scf accuracy    <       0.00648092 Ry

     iteration #  2     ecut=    60.00 Ry     beta= 0.70
     Davidson diagonalization with overlap
     ethr =  2.49E-05,  avg # of iterations =  3.0

     negative rho (up, down):  1.103E-03 0.000E+00

     total cpu time spent up to now is        2.8 secs

     total energy              =    -180.87275601 Ry
     estimated scf accuracy    <       0.00939856 Ry

     iteration #  3     ecut=    60.00 Ry     beta= 0.70
     Davidson diagonalization with overlap
     ethr =  2.49E-05,  avg # of iterations =  3.0

     negative rho (up, down):  1.096E-03 0.000E+00

     total cpu time spent up to now is        2.8 secs

     total energy              =    -180.87511269 Ry
     estimated scf accuracy    <       0.00153142 Ry

     iteration #  4     ecut=    60.00 Ry     beta= 0.70
     Davidson diagonalization with overlap
     ethr =  5.89E-06,  avg # of iterations =  2.0

     negative rho (up, down):  1.091E-03 0.000E+00

     total cpu time spent up to now is        2.8 secs

     total energy              =    -180.87529701 Ry
     estimated scf accuracy    <       0.00005129 Ry

     iteration #  5     ecut=    60.00 Ry     beta= 0.70
     Davidson diagonalization with overlap
     ethr =  1.97E-07,  avg # of iterations =  6.0

     negative rho (up, down):  1.093E-03 0.000E+00

     total cpu time spent up to now is        2.8 secs

     total energy              =    -180.87530118 Ry
     estimated scf accuracy    <       0.00030025 Ry

     iteration #  6     ecut=    60.00 Ry     beta= 0.70
     Davidson diagonalization with overlap
     ethr =  1.97E-07,  avg # of iterations =  5.0

     negative rho (up, down):  1.099E-03 0.000E+00

     total cpu time spent up to now is        2.8 secs

     total energy              =    -180.87532511 Ry
     estimated scf accuracy    <       0.00002847 Ry

     iteration #  7     ecut=    60.00 Ry     beta= 0.70
     Davidson diagonalization with overlap
     ethr =  1.10E-07,  avg # of iterations =  2.0

     negative rho (up, down):  1.104E-03 0.000E+00

     total cpu time spent up to now is        2.8 secs

     total energy              =    -180.87532627 Ry
     estimated scf accuracy    <       0.00000430 Ry

     iteration #  8     ecut=    60.00 Ry     beta= 0.70
     Davidson diagonalization with overlap
     ethr =  1.65E-08,  avg # of iterations =  5.0

     negative rho (up, down):  1.105E-03 0.000E+00

     total cpu time spent up to now is        2.9 secs

     total energy              =    -180.87532729 Ry
     estimated scf accuracy    <       0.00000017 Ry

     iteration #  9     ecut=    60.00 Ry     beta= 0.70
     Davidson diagonalization with overlap
     ethr =  6.50E-10,  avg # of iterations =  5.0

     negative rho (up, down):  1.105E-03 0.000E+00

     total cpu time spent up to now is        2.9 secs

     total energy              =    -180.87532732 Ry
     estimated scf accuracy    <       0.00000011 Ry

     iteration # 10     ecut=    60.00 Ry     beta= 0.70
     Davidson diagonalization with overlap
     ethr =  4.23E-10,  avg # of iterations =  2.0

     negative rho (up, down):  1.104E-03 0.000E+00

     total cpu time spent up to now is        2.9 secs

     total energy              =    -180.87532732 Ry
     estimated scf accuracy    <       0.00000002 Ry

     iteration # 11     ecut=    60.00 Ry     beta= 0.70
     Davidson diagonalization with overlap
     ethr =  8.02E-11,  avg # of iterations =  3.0

     negative rho (up, down):  1.104E-03 0.000E+00

     total cpu time spent up to now is        2.9 secs

     End of self-consistent calculation

          k = 0.0000 0.0000 0.0000 (  3506 PWs)   bands (ev):

   -60.1224 -34.6560 -34.6510 -34.3562 -17.7767 -12.7782  -8.1979  -7.0038
    -6.9984  -3.8011  -3.7854   0.5433   2.1730   2.4416   2.4449   3.6236
     4.5465

     the Fermi energy is     2.0517 ev

!    total energy              =    -180.87532732 Ry
     estimated scf accuracy    <          3.7E-10 Ry
     smearing contrib. (-TS)   =      -0.22293893 Ry
     internal energy E=F+TS    =    -180.65238839 Ry

     The total energy is F=E-TS. E is the sum of the following terms:
     one-electron contribution =    -835.26688294 Ry
     hartree contribution      =     418.72415750 Ry
     xc contribution           =     -30.73358095 Ry
     ewald contribution        =     266.62391801 Ry

     convergence has been achieved in  11 iterations

     negative rho (up, down):  1.104E-03 0.000E+00

     Forces acting on atoms (cartesian axes, Ry/au):

     atom    1 type  1   force =     0.00000000    0.00000000    0.00000000
     atom    2 type  2   force =     0.00000000   -0.00000000    0.41513932
     atom    3 type  2   force =    -0.00000000    0.00000000   -0.41513932

     Total force =     0.587096     Total SCF correction =     0.000113
     Energy error            =      1.2E-01
     Gradient error          =      4.2E-01

     number of scf cycles    =   3
     number of bfgs steps    =   2

     energy   old            =    -180.7547752372 Ry
     energy   new            =    -180.8753273216 Ry

     CASE: energy  _new < energy  _old

     new trust radius        =       0.1392344617 bohr
     new conv_thr            =       0.0000000010 Ry


ATOMIC_POSITIONS (crystal)
Mo            0.3333333330        0.6666666670        0.5000000000
S             0.6666666670        0.3333333330        0.5740166572
S             0.6666666670        0.3333333330        0.4259833428



     Writing output data file ./tmp/MoS2.save/
     NEW-OLD atomic charge density approx. for the potential

     negative rho (up, down):  1.111E-03 0.000E+00

     total cpu time spent up to now is        2.9 secs

     Self-consistent Calculation

     iteration #  1     ecut=    60.00 Ry     beta= 0.70
     Davidson diagonalization with overlap
     ethr =  1.00E-06,  avg # of iterations = 10.0

     negative rho (up, down):  1.172E-03 0.000E+00

     total cpu time spent up to now is        3.0 secs

     total energy              =    -180.97092816 Ry
     estimated scf accuracy    <       0.00420274 Ry

     iteration #  2     ecut=    60.00 Ry     beta= 0.70
     Davidson diagonalization with overlap
     ethr =  1.62E-05,  avg # of iterations =  3.0

     negative rho (up, down):  1.173E-03 0.000E+00

     total cpu time spent up to now is        3.0 secs

     total energy              =    -180.97062899 Ry
     estimated scf accuracy    <       0.00639613 Ry

     iteration #  3     ecut=    60.00 Ry     beta= 0.70
     Davidson diagonalization with overlap
     ethr =  1.62E-05,  avg # of iterations =  2.0

     negative rho (up, down):  1.161E-03 0.000E+00

     total cpu time spent up to now is        3.0 secs

     total energy              =    -180.97207879 Ry
     estimated scf accuracy    <       0.00115853 Ry

     iteration #  4     ecut=    60.00 Ry     beta= 0.70
     Davidson diagonalization with overlap
     ethr =  4.46E-06,  avg # of iterations =  2.0

     negative rho (up, down):  1.157E-03 0.000E+00

     total cpu time spent up to now is        3.0 secs

     total energy              =    -180.97226421 Ry
     estimated scf accuracy    <       0.00004884 Ry

     iteration #  5     ecut=    60.00 Ry     beta= 0.70
     Davidson diagonalization with overlap
     ethr =  1.88E-07,  avg # of iterations =  6.0

     negative rho (up, down):  1.158E-03 0.000E+00

     total cpu time spent up to now is        3.1 secs

     total energy              =    -180.97225358 Ry
     estimated scf accuracy    <       0.00023841 Ry

     iteration #  6     ecut=    60.00 Ry     beta= 0.70
     Davidson diagonalization with overlap
     ethr =  1.88E-07,  avg # of iterations =  6.0

     negative rho (up, down):  1.161E-03 0.000E+00

     total cpu time spent up to now is        3.1 secs

     total energy              =    -180.97228357 Ry
     estimated scf accuracy    <       0.00002759 Ry

     iteration #  7     ecut=    60.00 Ry     beta= 0.70
     Davidson diagonalization with overlap
     ethr =  1.06E-07,  avg # of iterations =  2.0

     negative rho (up, down):  1.164E-03 0.000E+00

     total cpu time spent up to now is        3.1 secs

     total energy              =    -180.97228547 Ry
     estimated scf accuracy    <       0.00000105 Ry

     iteration #  8     ecut=    60.00 Ry     beta= 0.70
     Davidson diagonalization with overlap
     ethr =  4.06E-09,  avg # of iterations =  8.0

     negative rho (up, down):  1.164E-03 0.000E+00

     total cpu time spent up to now is        3.1 secs

     total energy              =    -180.97228592 Ry
     estimated scf accuracy    <       0.00000116 Ry

     iteration #  9     ecut=    60.00 Ry     beta= 0.70
     Davidson diagonalization with overlap
     ethr =  4.06E-09,  avg # of iterations =  1.0

     negative rho (up, down):  1.164E-03 0.000E+00

     total cpu time spent up to now is        3.1 secs

     total energy              =    -180.97228589 Ry
     estimated scf accuracy    <       0.00000032 Ry

     iteration # 10     ecut=    60.00 Ry     beta= 0.70
     Davidson diagonalization with overlap
     ethr =  1.22E-09,  avg # of iterations =  6.0

     negative rho (up, down):  1.164E-03 0.000E+00

     total cpu time spent up to now is        3.1 secs

     total energy              =    -180.97228593 Ry
     estimated scf accuracy    <          9.9E-09 Ry

     iteration # 11     ecut=    60.00 Ry     beta= 0.70
     Davidson diagonalization with overlap
     ethr =  3.79E-11,  avg # of iterations =  4.0

     negative rho (up, down):  1.164E-03 0.000E+00

     total cpu time spent up to now is        3.1 secs

     total energy              =    -180.97228593 Ry
     estimated scf accuracy    <          3.5E-09 Ry

     iteration # 12     ecut=    60.00 Ry     beta= 0.70
     Davidson diagonalization with overlap
     ethr =  1.36E-11,  avg # of iterations =  2.0

     negative rho (up, down):  1.164E-03 0.000E+00

     total cpu time spent up to now is        3.2 secs

     End of self-consistent calculation

          k = 0.0000 0.0000 0.0000 (  3506 PWs)   bands (ev):

   -59.8198 -34.2520 -34.2474 -34.1060 -16.7995 -12.8409  -7.6854  -6.0365
    -6.0299  -3.4013  -3.3847   0.0427   1.9640   2.5464   2.5492   4.3425
     4.3612

     the Fermi energy is     1.9479 ev

!    total energy              =    -180.97228593 Ry
     estimated scf accuracy    <          8.8E-10 Ry
     smearing contrib. (-TS)   =      -0.14723505 Ry
     internal energy E=F+TS    =    -180.82505088 Ry

     The total energy is F=E-TS. E is the sum of the following terms:
     one-electron contribution =    -818.04499493 Ry
     hartree contribution      =     410.37060145 Ry
     xc contribution           =     -30.60928321 Ry
     ewald contribution        =     257.45862580 Ry

     convergence has been achieved in  12 iterations

     negative rho (up, down):  1.164E-03 0.000E+00

     Forces acting on atoms (cartesian axes, Ry/au):

     atom    1 type  1   force =     0.00000000    0.00000000    0.00000000
     atom    2 type  2   force =     0.00000000    0.00000000    0.28030699
     atom    3 type  2   force =     0.00000000    0.00000000   -0.28030699

     Total force =     0.396414     Total SCF correction =     0.000209
     Energy error            =      9.7E-02
     Gradient error          =      2.8E-01

     number of scf cycles    =   4
     number of bfgs steps    =   3

     energy   old            =    -180.8753273216 Ry
     energy   new            =    -180.9722859317 Ry

     CASE: energy  _new < energy  _old

     new trust radius        =       0.2088516926 bohr
     new conv_thr            =       0.0000000010 Ry


ATOMIC_POSITIONS (crystal)
Mo            0.3333333330        0.6666666670        0.5000000000
S             0.6666666670        0.3333333330        0.5813846277
S             0.6666666670        0.3333333330        0.4186153723



     Writing output data file ./tmp/MoS2.save/
     NEW-OLD atomic charge density approx. for the potential

     negative rho (up, down):  1.169E-03 0.000E+00

     total cpu time spent up to now is        3.2 secs

     Self-consistent Calculation

     iteration #  1     ecut=    60.00 Ry     beta= 0.70
     Davidson diagonalization with overlap
     ethr =  1.00E-06,  avg # of iterations = 17.0

     negative rho (up, down):  1.239E-03 0.000E+00

     total cpu time spent up to now is        3.2 secs

     total energy              =    -181.04713667 Ry
     estimated scf accuracy    <       0.01131364 Ry

     iteration #  2     ecut=    60.00 Ry     beta= 0.70
     Davidson diagonalization with overlap
     ethr =  4.35E-05,  avg # of iterations =  2.0

     negative rho (up, down):  1.225E-03 0.000E+00

     total cpu time spent up to now is        3.3 secs

     total energy              =    -181.04632744 Ry
     estimated scf accuracy    <       0.01812112 Ry

     iteration #  3     ecut=    60.00 Ry     beta= 0.70
     Davidson diagonalization with overlap
     ethr =  4.35E-05,  avg # of iterations =  2.0

     negative rho (up, down):  1.198E-03 0.000E+00

     total cpu time spent up to now is        3.3 secs

     total energy              =    -181.04993086 Ry
     estimated scf accuracy    <       0.00671930 Ry

     iteration #  4     ecut=    60.00 Ry     beta= 0.70
     Davidson diagonalization with overlap
     ethr =  2.58E-05,  avg # of iterations =  2.0

     negative rho (up, down):  1.176E-03 0.000E+00

     total cpu time spent up to now is        3.3 secs

     total energy              =    -181.05089727 Ry
     estimated scf accuracy    <       0.00013836 Ry

     iteration #  5     ecut=    60.00 Ry     beta= 0.70
     Davidson diagonalization with overlap
     ethr =  5.32E-07,  avg # of iterations =  5.0

     negative rho (up, down):  1.176E-03 0.000E+00

     total cpu time spent up to now is        3.3 secs

     total energy              =    -181.05075031 Ry
     estimated scf accuracy    <       0.00272938 Ry

     iteration #  6     ecut=    60.00 Ry     beta= 0.70
     Davidson diagonalization with overlap
     ethr =  5.32E-07,  avg # of iterations =  4.0

     negative rho (up, down):  1.190E-03 0.000E+00

     total cpu time spent up to now is        3.3 secs

     total energy              =    -181.05098430 Ry
     estimated scf accuracy    <       0.00003154 Ry

     iteration #  7     ecut=    60.00 Ry     beta= 0.70
     Davidson diagonalization with overlap
     ethr =  1.21E-07,  avg # of iterations =  3.0

     negative rho (up, down):  1.197E-03 0.000E+00

     total cpu time spent up to now is        3.3 secs

     total energy              =    -181.05098785 Ry
     estimated scf accuracy    <       0.00000094 Ry

     iteration #  8     ecut=    60.00 Ry     beta= 0.70
     Davidson diagonalization with overlap
     ethr =  3.60E-09,  avg # of iterations =  4.0

     negative rho (up, down):  1.196E-03 0.000E+00

     total cpu time spent up to now is        3.4 secs

     total energy              =    -181.05098831 Ry
     estimated scf accuracy    <       0.00000036 Ry

     iteration #  9     ecut=    60.00 Ry     beta= 0.70
     Davidson diagonalization with overlap
     ethr =  1.38E-09,  avg # of iterations =  2.0

     negative rho (up, down):  1.196E-03 0.000E+00

     total cpu time spent up to now is        3.4 secs

     total energy              =    -181.05098832 Ry
     estimated scf accuracy    <       0.00000003 Ry

     iteration # 10     ecut=    60.00 Ry     beta= 0.70
     Davidson diagonalization with overlap
     ethr =  1.33E-10,  avg # of iterations =  5.0

     negative rho (up, down):  1.196E-03 0.000E+00

     total cpu time spent up to now is        3.4 secs

     total energy              =    -181.05098834 Ry
     estimated scf accuracy    <       0.00000001 Ry

     iteration # 11     ecut=    60.00 Ry     beta= 0.70
     Davidson diagonalization with overlap
     ethr =  4.74E-11,  avg # of iterations =  2.0

     negative rho (up, down):  1.196E-03 0.000E+00

     total cpu time spent up to now is        3.4 secs

     total energy              =    -181.05098834 Ry
     estimated scf accuracy    <          1.0E-09 Ry

     iteration # 12     ecut=    60.00 Ry     beta= 0.70
     Davidson diagonalization with overlap
     ethr =  3.90E-12,  avg # of iterations =  4.0

     negative rho (up, down):  1.196E-03 0.000E+00

     total cpu time spent up to now is        3.4 secs

     End of self-consistent calculation

          k = 0.0000 0.0000 0.0000 (  3506 PWs)   bands (ev):

   -59.3481 -33.7164 -33.6204 -33.6204 -15.5942 -12.8161  -6.8246  -4.6047
    -4.6047  -2.6718  -2.6718  -0.4903   1.6769   2.8348   2.8348   4.1555
     4.1555

     the Fermi energy is     1.7449 ev

!    total energy              =    -181.05098834 Ry
     estimated scf accuracy    <          4.3E-12 Ry
     smearing contrib. (-TS)   =      -0.03001221 Ry
     internal energy E=F+TS    =    -181.02097613 Ry

     The total energy is F=E-TS. E is the sum of the following terms:
     one-electron contribution =    -792.06400295 Ry
     hartree contribution      =     397.79350663 Ry
     xc contribution           =     -30.42419034 Ry
     ewald contribution        =     243.67371053 Ry

     convergence has been achieved in  12 iterations

     negative rho (up, down):  1.196E-03 0.000E+00

     Forces acting on atoms (cartesian axes, Ry/au):

     atom    1 type  1   force =     0.00000000   -0.00000000    0.00000000
     atom    2 type  2   force =     0.00000000   -0.00000000    0.08174148
     atom    3 type  2   force =     0.00000000    0.00000000   -0.08174148

     Total force =     0.115600     Total SCF correction =     0.000006
     Energy error            =      7.9E-02
     Gradient error          =      8.2E-02

     number of scf cycles    =   5
     number of bfgs steps    =   4

     energy   old            =    -180.9722859317 Ry
     energy   new            =    -181.0509883379 Ry

     CASE: energy  _new < energy  _old

     new trust radius        =       0.0859758888 bohr
     new conv_thr            =       0.0000000010 Ry


ATOMIC_POSITIONS (crystal)
Mo            0.3333333330        0.6666666670        0.5000000000
S             0.6666666670        0.3333333330        0.5844177264
S             0.6666666670        0.3333333330        0.4155822736



     Writing output data file ./tmp/MoS2.save/
     NEW-OLD atomic charge density approx. for the potential

     negative rho (up, down):  1.187E-03 0.000E+00

     total cpu time spent up to now is        3.4 secs

     Self-consistent Calculation

     iteration #  1     ecut=    60.00 Ry     beta= 0.70
     Davidson diagonalization with overlap
     ethr =  1.00E-06,  avg # of iterations =  9.0

     negative rho (up, down):  1.212E-03 0.000E+00

     total cpu time spent up to now is        3.5 secs

     total energy              =    -181.05735349 Ry
     estimated scf accuracy    <       0.00252246 Ry

     iteration #  2     ecut=    60.00 Ry     beta= 0.70
     Davidson diagonalization with overlap
     ethr =  9.70E-06,  avg # of iterations =  2.0

     negative rho (up, down):  1.207E-03 0.000E+00

     total cpu time spent up to now is        3.5 secs

     total energy              =    -181.05696427 Ry
     estimated scf accuracy    <       0.00560713 Ry

     iteration #  3     ecut=    60.00 Ry     beta= 0.70
     Davidson diagonalization with overlap
     ethr =  9.70E-06,  avg # of iterations =  3.0

     negative rho (up, down):  1.193E-03 0.000E+00

     total cpu time spent up to now is        3.5 secs

     total energy              =    -181.05804001 Ry
     estimated scf accuracy    <       0.00175447 Ry

     iteration #  4     ecut=    60.00 Ry     beta= 0.70
     Davidson diagonalization with overlap
     ethr =  6.75E-06,  avg # of iterations =  2.0

     negative rho (up, down):  1.181E-03 0.000E+00

     total cpu time spent up to now is        3.5 secs

     total energy              =    -181.05828135 Ry
     estimated scf accuracy    <       0.00001219 Ry

     iteration #  5     ecut=    60.00 Ry     beta= 0.70
     Davidson diagonalization with overlap
     ethr =  4.69E-08,  avg # of iterations =  5.0

     negative rho (up, down):  1.189E-03 0.000E+00

     total cpu time spent up to now is        3.5 secs

     total energy              =    -181.05828894 Ry
     estimated scf accuracy    <       0.00000740 Ry

     iteration #  6     ecut=    60.00 Ry     beta= 0.70
     Davidson diagonalization with overlap
     ethr =  2.85E-08,  avg # of iterations =  3.0

     negative rho (up, down):  1.190E-03 0.000E+00

     total cpu time spent up to now is        3.6 secs

     total energy              =    -181.05828845 Ry
     estimated scf accuracy    <       0.00001576 Ry

     iteration #  7     ecut=    60.00 Ry     beta= 0.70
     Davidson diagonalization with overlap
     ethr =  2.85E-08,  avg # of iterations =  2.0

     negative rho (up, down):  1.193E-03 0.000E+00

     total cpu time spent up to now is        3.6 secs

     total energy              =    -181.05828991 Ry
     estimated scf accuracy    <       0.00000024 Ry

     iteration #  8     ecut=    60.00 Ry     beta= 0.70
     Davidson diagonalization with overlap
     ethr =  9.04E-10,  avg # of iterations =  4.0

     negative rho (up, down):  1.193E-03 0.000E+00

     total cpu time spent up to now is        3.6 secs

     total energy              =    -181.05828997 Ry
     estimated scf accuracy    <       0.00000011 Ry

     iteration #  9     ecut=    60.00 Ry     beta= 0.70
     Davidson diagonalization with overlap
     ethr =  4.12E-10,  avg # of iterations =  2.0

     negative rho (up, down):  1.193E-03 0.000E+00

     total cpu time spent up to now is        3.6 secs

     End of self-consistent calculation

          k = 0.0000 0.0000 0.0000 (  3506 PWs)   bands (ev):

   -59.1948 -33.5875 -33.4033 -33.4033 -15.1938 -12.7905  -6.4735  -4.0576
    -4.0576  -2.3714  -2.3714  -0.6546   1.5578   2.9592   2.9592   4.0936
     4.0936

     the Fermi energy is     1.6536 ev

!    total energy              =    -181.05828999 Ry
     estimated scf accuracy    <          9.5E-10 Ry
     smearing contrib. (-TS)   =       0.02392018 Ry
     internal energy E=F+TS    =    -181.08221017 Ry

     The total energy is F=E-TS. E is the sum of the following terms:
     one-electron contribution =    -781.28261312 Ry
     hartree contribution      =     392.54853522 Ry
     xc contribution           =     -30.34302925 Ry
     ewald contribution        =     237.99489698 Ry

     convergence has been achieved in   9 iterations

     negative rho (up, down):  1.193E-03 0.000E+00

     Forces acting on atoms (cartesian axes, Ry/au):

     atom    1 type  1   force =     0.00000000   -0.00000000    0.00000000
     atom    2 type  2   force =     0.00000000    0.00000000    0.00480616
     atom    3 type  2   force =     0.00000000   -0.00000000   -0.00480616

     Total force =     0.006797     Total SCF correction =     0.000095
     Energy error            =      7.3E-03
     Gradient error          =      4.8E-03

     number of scf cycles    =   6
     number of bfgs steps    =   5

     energy   old            =    -181.0509883379 Ry
     energy   new            =    -181.0582899881 Ry

     CASE: energy  _new < energy  _old

     new trust radius        =       0.0053709198 bohr
     new conv_thr            =       0.0000000005 Ry


ATOMIC_POSITIONS (crystal)
Mo            0.3333333330        0.6666666670        0.5000000000
S             0.6666666670        0.3333333330        0.5846072043
S             0.6666666670        0.3333333330        0.4153927957



     Writing output data file ./tmp/MoS2.save/
     NEW-OLD atomic charge density approx. for the potential

     negative rho (up, down):  1.192E-03 0.000E+00

     total cpu time spent up to now is        3.6 secs

     Self-consistent Calculation

     iteration #  1     ecut=    60.00 Ry     beta= 0.70
     Davidson diagonalization with overlap
     ethr =  1.00E-06,  avg # of iterations =  3.0

     Threshold (ethr) on eigenvalues was too large:
     Diagonalizing with lowered threshold

     Davidson diagonalization with overlap
     ethr =  5.76E-08,  avg # of iterations =  4.0

     negative rho (up, down):  1.194E-03 0.000E+00

     total cpu time spent up to now is        3.7 secs

     total energy              =    -181.05831284 Ry
     estimated scf accuracy    <       0.00001104 Ry

     iteration #  2     ecut=    60.00 Ry     beta= 0.70
     Davidson diagonalization with overlap
     ethr =  4.25E-08,  avg # of iterations =  2.0

     negative rho (up, down):  1.194E-03 0.000E+00

     total cpu time spent up to now is        3.7 secs

     total energy              =    -181.05831071 Ry
     estimated scf accuracy    <       0.00002891 Ry

     iteration #  3     ecut=    60.00 Ry     beta= 0.70
     Davidson diagonalization with overlap
     ethr =  4.25E-08,  avg # of iterations =  3.0

     negative rho (up, down):  1.193E-03 0.000E+00

     total cpu time spent up to now is        3.7 secs

     total energy              =    -181.05831583 Ry
     estimated scf accuracy    <       0.00000860 Ry

     iteration #  4     ecut=    60.00 Ry     beta= 0.70
     Davidson diagonalization with overlap
     ethr =  3.31E-08,  avg # of iterations =  2.0

     negative rho (up, down):  1.193E-03 0.000E+00

     total cpu time spent up to now is        3.7 secs

     total energy              =    -181.05831632 Ry
     estimated scf accuracy    <       0.00000623 Ry

     iteration #  5     ecut=    60.00 Ry     beta= 0.70
     Davidson diagonalization with overlap
     ethr =  2.40E-08,  avg # of iterations =  2.0

     negative rho (up, down):  1.192E-03 0.000E+00

     total cpu time spent up to now is        3.7 secs

     total energy              =    -181.05831711 Ry
     estimated scf accuracy    <       0.00000064 Ry

     iteration #  6     ecut=    60.00 Ry     beta= 0.70
     Davidson diagonalization with overlap
     ethr =  2.45E-09,  avg # of iterations =  2.0

     negative rho (up, down):  1.192E-03 0.000E+00

     total cpu time spent up to now is        3.7 secs

     total energy              =    -181.05831716 Ry
     estimated scf accuracy    <          9.5E-09 Ry

     iteration #  7     ecut=    60.00 Ry     beta= 0.70
     Davidson diagonalization with overlap
     ethr =  3.67E-11,  avg # of iterations =  4.0

     negative rho (up, down):  1.193E-03 0.000E+00

     total cpu time spent up to now is        3.8 secs

     total energy              =    -181.05831716 Ry
     estimated scf accuracy    <          1.2E-09 Ry

     iteration #  8     ecut=    60.00 Ry     beta= 0.70
     Davidson diagonalization with overlap
     ethr =  4.53E-12,  avg # of iterations =  2.0

     negative rho (up, down):  1.193E-03 0.000E+00

     total cpu time spent up to now is        3.8 secs

     End of self-consistent calculation

          k = 0.0000 0.0000 0.0000 (  3506 PWs)   bands (ev):

   -59.1861 -33.5803 -33.3907 -33.3907 -15.1707 -12.7887  -6.4520  -4.0247
    -4.0247  -2.3529  -2.3529  -0.6640   1.5504   2.9667   2.9667   4.0898
     4.0898

     the Fermi energy is     1.6478 ev

!    total energy              =    -181.05831716 Ry
     estimated scf accuracy    <          4.9E-11 Ry
     smearing contrib. (-TS)   =       0.02715368 Ry
     internal energy E=F+TS    =    -181.08547084 Ry

     The total energy is F=E-TS. E is the sum of the following terms:
     one-electron contribution =    -780.60747421 Ry
     hartree contribution      =     392.21986274 Ry
     xc contribution           =     -30.33805575 Ry
     ewald contribution        =     237.64019637 Ry

     convergence has been achieved in   8 iterations

     negative rho (up, down):  1.193E-03 0.000E+00

     Forces acting on atoms (cartesian axes, Ry/au):

     atom    1 type  1   force =     0.00000000   -0.00000000    0.00000000
     atom    2 type  2   force =     0.00000000   -0.00000000    0.00029934
     atom    3 type  2   force =    -0.00000000    0.00000000   -0.00029934

     Total force =     0.000423     Total SCF correction =     0.000029
     Energy error            =      2.7E-05
     Gradient error          =      3.0E-04

     number of scf cycles    =   7
     number of bfgs steps    =   6

     energy   old            =    -181.0582899881 Ry
     energy   new            =    -181.0583171623 Ry

     CASE: energy  _new < energy  _old

     new trust radius        =       0.0003567387 bohr
     new conv_thr            =            2.7E-11 Ry


ATOMIC_POSITIONS (crystal)
Mo            0.3333333330        0.6666666670        0.5000000000
S             0.6666666670        0.3333333330        0.5846197895
S             0.6666666670        0.3333333330        0.4153802105



     Writing output data file ./tmp/MoS2.save/
     NEW-OLD atomic charge density approx. for the potential

     negative rho (up, down):  1.193E-03 0.000E+00

     total cpu time spent up to now is        3.8 secs

     Self-consistent Calculation

     iteration #  1     ecut=    60.00 Ry     beta= 0.70
     Davidson diagonalization with overlap
     ethr =  1.00E-06,  avg # of iterations =  2.0

     Threshold (ethr) on eigenvalues was too large:
     Diagonalizing with lowered threshold

     Davidson diagonalization with overlap
     ethr =  3.32E-10,  avg # of iterations =  4.0

     negative rho (up, down):  1.193E-03 0.000E+00

     total cpu time spent up to now is        3.8 secs

     total energy              =    -181.05831725 Ry
     estimated scf accuracy    <       0.00000005 Ry

     iteration #  2     ecut=    60.00 Ry     beta= 0.70
     Davidson diagonalization with overlap
     ethr =  2.00E-10,  avg # of iterations =  3.0

     negative rho (up, down):  1.193E-03 0.000E+00

     total cpu time spent up to now is        3.9 secs

     total energy              =    -181.05831723 Ry
     estimated scf accuracy    <       0.00000022 Ry

     iteration #  3     ecut=    60.00 Ry     beta= 0.70
     Davidson diagonalization with overlap
     ethr =  2.00E-10,  avg # of iterations =  3.0

     negative rho (up, down):  1.193E-03 0.000E+00

     total cpu time spent up to now is        3.9 secs

     total energy              =    -181.05831725 Ry
     estimated scf accuracy    <       0.00000016 Ry

     iteration #  4     ecut=    60.00 Ry     beta= 0.70
     Davidson diagonalization with overlap
     ethr =  2.00E-10,  avg # of iterations =  3.0

     negative rho (up, down):  1.193E-03 0.000E+00

     total cpu time spent up to now is        3.9 secs

     total energy              =    -181.05831727 Ry
     estimated scf accuracy    <       0.00000004 Ry

     iteration #  5     ecut=    60.00 Ry     beta= 0.70
     Davidson diagonalization with overlap
     ethr =  1.57E-10,  avg # of iterations =  2.0

     negative rho (up, down):  1.193E-03 0.000E+00

     total cpu time spent up to now is        3.9 secs

     total energy              =    -181.05831727 Ry
     estimated scf accuracy    <          2.8E-10 Ry

     iteration #  6     ecut=    60.00 Ry     beta= 0.70
     Davidson diagonalization with overlap
     ethr =  1.08E-12,  avg # of iterations =  5.0

     negative rho (up, down):  1.193E-03 0.000E+00

     total cpu time spent up to now is        3.9 secs

     total energy              =    -181.05831727 Ry
     estimated scf accuracy    <          8.7E-11 Ry

     iteration #  7     ecut=    60.00 Ry     beta= 0.70
     Davidson diagonalization with overlap
     ethr =  3.36E-13,  avg # of iterations =  4.0

     negative rho (up, down):  1.193E-03 0.000E+00

     total cpu time spent up to now is        3.9 secs

     End of self-consistent calculation

          k = 0.0000 0.0000 0.0000 (  3506 PWs)   bands (ev):

   -59.1855 -33.5798 -33.3899 -33.3899 -15.1691 -12.7885  -6.4506  -4.0225
    -4.0225  -2.3517  -2.3517  -0.6646   1.5500   2.9672   2.9672   4.0896
     4.0896

     the Fermi energy is     1.6475 ev

!    total energy              =    -181.05831727 Ry
     estimated scf accuracy    <          1.7E-12 Ry
     smearing contrib. (-TS)   =       0.02736712 Ry
     internal energy E=F+TS    =    -181.08568439 Ry

     The total energy is F=E-TS. E is the sum of the following terms:
     one-electron contribution =    -780.56258349 Ry
     hartree contribution      =     392.19798526 Ry
     xc contribution           =     -30.33772360 Ry
     ewald contribution        =     237.61663743 Ry

     convergence has been achieved in   7 iterations

     negative rho (up, down):  1.193E-03 0.000E+00

     Forces acting on atoms (cartesian axes, Ry/au):

     atom    1 type  1   force =     0.00000000    0.00000000    0.00000000
     atom    2 type  2   force =     0.00000000    0.00000000    0.00000327
     atom    3 type  2   force =     0.00000000    0.00000000   -0.00000327

     Total force =     0.000005     Total SCF correction =     0.000004
     SCF correction compared to forces is large: reduce conv_thr to get better values
     Energy error            =      1.1E-07
     Gradient error          =      3.3E-06

     bfgs converged in   8 scf cycles and   7 bfgs steps
     (criteria: energy <  1.0E-05 Ry, force <  1.0E-04 Ry/Bohr)

     End of BFGS Geometry Optimization

     Final energy   =    -181.0583172707 Ry

     File ./tmp/MoS2.bfgs deleted, as requested
Begin final coordinates

ATOMIC_POSITIONS (crystal)
Mo            0.3333333330        0.6666666670        0.5000000000
S             0.6666666670        0.3333333330        0.5846197895
S             0.6666666670        0.3333333330        0.4153802105
End final coordinates



     Writing output data file ./tmp/MoS2.save/
 
     init_run     :      0.08s CPU      0.63s WALL (       1 calls)
     electrons    :      1.55s CPU      1.79s WALL (       8 calls)
     update_pot   :      0.06s CPU      0.06s WALL (       7 calls)
     forces       :      0.07s CPU      0.09s WALL (       8 calls)

     Called by init_run:
     wfcinit      :      0.01s CPU      0.12s WALL (       1 calls)
     potinit      :      0.00s CPU      0.06s WALL (       1 calls)
     hinit0       :      0.03s CPU      0.39s WALL (       1 calls)

     Called by electrons:
     c_bands      :      0.83s CPU      0.90s WALL (      96 calls)
     sum_band     :      0.27s CPU      0.32s WALL (      96 calls)
     v_of_rho     :      0.17s CPU      0.23s WALL (     102 calls)
     newd         :      0.16s CPU      0.17s WALL (     102 calls)
     mix_rho      :      0.04s CPU      0.05s WALL (      96 calls)

     Called by c_bands:
     init_us_2    :      0.01s CPU      0.01s WALL (     193 calls)
     regterg      :      0.80s CPU      0.84s WALL (      96 calls)

     Called by *egterg:
     rdiaghg      :      0.11s CPU      0.22s WALL (     500 calls)
     h_psi        :      0.62s CPU      0.64s WALL (     510 calls)
     s_psi        :      0.01s CPU      0.01s WALL (     510 calls)
     g_psi        :      0.00s CPU      0.00s WALL (     413 calls)

     Called by h_psi:
     h_psi:calbec :      0.04s CPU      0.05s WALL (     510 calls)
     vloc_psi     :      0.57s CPU      0.59s WALL (     510 calls)
     add_vuspsi   :      0.01s CPU      0.01s WALL (     510 calls)

     General routines
     calbec       :      0.05s CPU      0.06s WALL (     638 calls)
     fft          :      0.18s CPU      0.38s WALL (     999 calls)
     ffts         :      0.02s CPU      0.02s WALL (      96 calls)
     fftw         :      0.63s CPU      0.67s WALL (    6106 calls)
 
     Parallel routines
     fft_scatt_xy :      0.03s CPU      0.03s WALL (    7201 calls)
     fft_scatt_yz :      0.63s CPU      0.67s WALL (    7201 calls)
 
     PWSCF        :      1.98s CPU      4.05s WALL

 
   This run was terminated on:  21: 2: 0  11Jun2026            

=------------------------------------------------------------------------------=
   JOB DONE.
=------------------------------------------------------------------------------=
