
     Program PHONON v.7.0 starts on 15Jun2026 at 20:43:36 

     This program is part of the open-source Quantum ESPRESSO suite
     for quantum simulation of materials; please cite
         "P. Giannozzi et al., J. Phys.:Condens. Matter 21 395502 (2009);
         "P. Giannozzi et al., J. Phys.:Condens. Matter 29 465901 (2017);
         "P. Giannozzi et al., J. Chem. Phys. 152 154105 (2020);
          URL http://www.quantum-espresso.org", 
     in publications or presentations arising from this work. More details at
     http://www.quantum-espresso.org/quote

     Parallel version (MPI & OpenMP), running on      64 processor cores
     Number of MPI processes:                16
     Threads/MPI process:                     4

     MPI processes distributed on     1 nodes
     R & G space division:  proc/nbgrp/npool/nimage =      16
     233301 MiB available memory on the printing compute node when the environment starts
 
     Waiting for input...
     Reading input from standard input

     Reading xml data from directory:

     ./tmp/mos2.save/

     IMPORTANT: XC functional enforced from input :
     Exchange-correlation= PZ
                           (   1   1   0   0   0   0   0)
     Any further DFT definition will be discarded
     Please, verify this is what you really want

 
     Parallelization info
     --------------------
     sticks:   dense  smooth     PW     G-vecs:    dense   smooth      PW
     Min          48      48     13                 6942     6942    1075
     Max          49      49     14                 6963     6963    1096
     Sum         769     769    223               111239   111239   17391
 
     Using Slab Decomposition
 
 ----2D----2D----2D----2D----2D----2D----2D----2D----2D----2D----2D----2D
  The code is running with the 2D cutoff
  Please refer to:
  Sohier, T., Calandra, M., & Mauri, F. (2017), 
  Density functional perturbation theory for gated two-dimensional heterostructu
 res:
  Theoretical developments and application to flexural phonons in graphene.
  Physical Review B, 96(7), 75448. https://doi.org/10.1103/PhysRevB.96.075448
 ----2D----2D----2D----2D----2D----2D----2D----2D----2D----2D----2D----2D
     Reading collected, re-writing distributed wavefunctions


     Dynamical matrices for ( 6, 6, 1)  uniform grid of q-points
     (   7 q-points):
       N         xq(1)         xq(2)         xq(3) 
       1   0.000000000   0.000000000   0.000000000
       2   0.000000000   0.192450090   0.000000000
       3   0.000000000   0.384900179   0.000000000
       4   0.000000000  -0.577350269   0.000000000
       5   0.166666667   0.288675135   0.000000000
       6   0.166666667   0.481125224   0.000000000
       7   0.333333333   0.577350269   0.000000000

     Calculation of q =    0.0000000   0.0000000   0.0000000

     phonon calc.                                                               

     bravais-lattice index     =            4
     lattice parameter (alat)  =       5.9296  a.u.
     unit-cell volume          =    1150.8250 (a.u.)^3
     number of atoms/cell      =            3
     number of atomic types    =            2
     kinetic-energy cut-off    =      80.0000  Ry
     charge density cut-off    =     320.0000  Ry
     convergence threshold     =      1.0E-14
     beta                      =       0.7000
     number of iterations used =            4
     Exchange-correlation= PZ
                           (   1   1   0   0   0   0   0)


     celldm(1)=    5.92959  celldm(2)=    0.00000  celldm(3)=    6.37388
     celldm(4)=    0.00000  celldm(5)=    0.00000  celldm(6)=    0.00000

     crystal axes: (cart. coord. in units of alat)
               a(1) = (  1.0000  0.0000  0.0000 )  
               a(2) = ( -0.5000  0.8660  0.0000 )  
               a(3) = (  0.0000  0.0000  6.3739 )  

     reciprocal axes: (cart. coord. in units 2 pi/alat)
               b(1) = (  1.0000  0.5774  0.0000 )  
               b(2) = (  0.0000  1.1547  0.0000 )  
               b(3) = (  0.0000  0.0000  0.1569 )  


     Atoms inside the unit cell: 

     Cartesian axes

     site n.  atom      mass           positions (alat units)
        1     Mo  95.9400   tau(    1) = (    0.00000    0.00000    3.18694  )
        2     S   32.0650   tau(    2) = (   -0.00000    0.57735    2.68887  )
        3     S   32.0650   tau(    3) = (   -0.00000    0.57735    3.68501  )

     Computing dynamical matrix for 
                    q = (   0.0000000   0.0000000   0.0000000 )
 
     13 Sym.Ops. (with q -> -q+G )


     G cutoff =  284.9968  (   6956 G-vectors)     FFT grid: ( 36, 36,216)
     number of k points=    19

     PseudoPot. # 1 for Mo read from file:
     /public3/home/a2s002871/MoS2/pseudo/Mo.pz-hgh.UPF
     MD5 check sum: ddacfae2313397baf1b67b06fa6affd0
     Pseudo is Norm-conserving, Zval =  6.0
     Generated in analytical, separable form
     Using radial grid of 1229 points,  6 beta functions with: 
                l(1) =   0
                l(2) =   0
                l(3) =   1
                l(4) =   1
                l(5) =   2
                l(6) =   2

     PseudoPot. # 2 for S  read from file:
     /public3/home/a2s002871/MoS2/pseudo/S.pz-hgh.UPF
     MD5 check sum: 38f9f902ee430b58f9df3cf2bf519617
     Pseudo is Norm-conserving, Zval =  6.0
     Generated in analytical, separable form
     Using radial grid of 1151 points,  3 beta functions with: 
                l(1) =   0
                l(2) =   0
                l(3) =   1

     Mode symmetry, D_3h (-62m) point group:


     Electric field:
     Dielectric constant
     Born effective charges in two ways 
     Raman tensor


     Atomic displacements:
     There are    6 irreducible representations

     Representation     1      1 modes -  To be done

     Representation     2      2 modes -  To be done

     Representation     3      2 modes -  To be done

     Representation     4      1 modes -  To be done

     Representation     5      1 modes -  To be done

     Representation     6      2 modes -  To be done



     Alpha used in Ewald sum =   2.8000
     PHONON       :      1.56s CPU      0.61s WALL


     Electric Fields Calculation

      iter #   1 total cpu time :    11.8 secs   av.it.:  10.1
      thresh= 1.000E-02 alpha_mix =  0.700 |ddv_scf|^2 =  1.504E-03

      iter #   2 total cpu time :    15.3 secs   av.it.:  11.3
      thresh= 3.878E-03 alpha_mix =  0.700 |ddv_scf|^2 =  6.030E-02

      iter #   3 total cpu time :    17.3 secs   av.it.:   5.4
      thresh= 1.000E-02 alpha_mix =  0.700 |ddv_scf|^2 =  2.216E-05

      iter #   4 total cpu time :    20.7 secs   av.it.:  11.5
      thresh= 4.708E-04 alpha_mix =  0.700 |ddv_scf|^2 =  4.560E-06

      iter #   5 total cpu time :    23.9 secs   av.it.:  10.5
      thresh= 2.135E-04 alpha_mix =  0.700 |ddv_scf|^2 =  2.014E-09

      iter #   6 total cpu time :    28.1 secs   av.it.:  13.9
      thresh= 4.488E-06 alpha_mix =  0.700 |ddv_scf|^2 =  7.825E-12

      iter #   7 total cpu time :    32.6 secs   av.it.:  15.6
      thresh= 2.797E-07 alpha_mix =  0.700 |ddv_scf|^2 =  2.300E-11

      iter #   8 total cpu time :    36.5 secs   av.it.:  13.5
      thresh= 4.795E-07 alpha_mix =  0.700 |ddv_scf|^2 =  8.397E-14

      iter #   9 total cpu time :    40.8 secs   av.it.:  14.2
      thresh= 2.898E-08 alpha_mix =  0.700 |ddv_scf|^2 =  6.184E-15

     End of electric fields calculation

          Dielectric constant in cartesian axis 

          (       5.082541397       0.000000000      -0.000000000 )
          (       0.000000000       5.082541397      -0.000000000 )
          (       0.000000000       0.000000000       1.255828246 )

          Effective charges (d Force / dE) in cartesian axis without acoustic sum rule applied (asr)

           atom      1   Mo Mean Z*:       -0.97002
      Ex  (       -1.41213        0.00000        0.00000 )
      Ey  (        0.00000       -1.41213       -0.00000 )
      Ez  (       -0.00000       -0.00000       -0.08582 )
           atom      2   S  Mean Z*:        0.49816
      Ex  (        0.72268       -0.00000       -0.00000 )
      Ey  (       -0.00000        0.72268        0.00000 )
      Ez  (        0.00000        0.00000        0.04911 )
           atom      3   S  Mean Z*:        0.49816
      Ex  (        0.72268       -0.00000       -0.00000 )
      Ey  (       -0.00000        0.72268       -0.00000 )
      Ez  (        0.00000       -0.00000        0.04911 )

          Effective charges Sum: Mean:        0.02629
              0.03324       -0.00000       -0.00000
             -0.00000        0.03324        0.00000
             -0.00000       -0.00000        0.01240

          Effective charges (d Force / dE) in cartesian axis with asr applied: 
           atom      1   Mo Mean Z*:       -0.97879
      E*x (       -1.42320        0.00000        0.00000 )
      E*y (        0.00000       -1.42320        0.00000 )
      E*z (       -0.00000       -0.00000       -0.08995 )
           atom      2   S  Mean Z*:        0.48939
      E*x (        0.71160       -0.00000        0.00000 )
      E*y (       -0.00000        0.71160        0.00000 )
      E*z (        0.00000        0.00000        0.04498 )
           atom      3   S  Mean Z*:        0.48939
      E*x (        0.71160       -0.00000       -0.00000 )
      E*y (       -0.00000        0.71160       -0.00000 )
      E*z (        0.00000       -0.00000        0.04498 )

     Calling punch_plot_e
     Writing on file  drho                                                                                                                                                                                                                                                            

     Computing Pc [DH,Drho] |psi> 

     Subspace diagonalization in iterative solution of the eigenvalue problem:
     a serial algorithm will be used


     Derivative coefficient:  0.001000    Threshold: 1.00E-12
     Non-scf  u_k: avg # of iterations = 25.5
     Non-scf Du_k: avg # of iterations = 42.7

          Dielectric constant from finite-differences

          (       5.113230458      -0.000000000       0.000000000 )
          (      -0.000000000       5.113230458       0.000000000 )
          (       0.000000000       0.000000000       1.259513694 )

     Computing Second order response 


      iter #   1   av.it.:  13.8
      thresh= 1.000E-02 alpha_mix =  0.700 |ddv_scf|^2 =  1.836E-04


      iter #   2   av.it.:  15.5
      thresh= 1.355E-03 alpha_mix =  0.700 |ddv_scf|^2 =  1.336E-03


      iter #   3   av.it.:  11.9
      thresh= 3.655E-03 alpha_mix =  0.700 |ddv_scf|^2 =  6.772E-06


      iter #   4   av.it.:  14.7
      thresh= 2.602E-04 alpha_mix =  0.700 |ddv_scf|^2 =  1.489E-06


      iter #   5   av.it.:  14.8
      thresh= 1.220E-04 alpha_mix =  0.700 |ddv_scf|^2 =  1.299E-07


      iter #   6   av.it.:  13.9
      thresh= 3.605E-05 alpha_mix =  0.700 |ddv_scf|^2 =  6.462E-11


      iter #   7   av.it.:  17.2
      thresh= 8.039E-07 alpha_mix =  0.700 |ddv_scf|^2 =  1.343E-10


      iter #   8   av.it.:  14.7
      thresh= 1.159E-06 alpha_mix =  0.700 |ddv_scf|^2 =  9.970E-12


      iter #   9   av.it.:  15.3
      thresh= 3.157E-07 alpha_mix =  0.700 |ddv_scf|^2 =  6.501E-13


      iter #  10   av.it.:  16.4
      thresh= 8.063E-08 alpha_mix =  0.700 |ddv_scf|^2 =  7.193E-14


      iter #  11   av.it.:  15.5
      thresh= 2.682E-08 alpha_mix =  0.700 |ddv_scf|^2 =  2.098E-15

          Raman tensor (au^-1) in cartesian axis 

           atom      1
          (      -0.000000000      -0.688909617       0.000000000 )
          (      -0.688909617       0.000000000       0.000000000 )
          (       0.000000000       0.000000000       0.000000000 )

          (      -0.688909617      -0.000000000       0.000000000 )
          (      -0.000000000       0.688909617       0.000000000 )
          (       0.000000000       0.000000000       0.000000000 )

          (       0.000000000       0.000000000       0.000000000 )
          (       0.000000000       0.000000000       0.000000000 )
          (       0.000000000       0.000000000       0.000000000 )

           atom      2
          (       0.000000000       0.339806758      -0.000789607 )
          (       0.339806758      -0.000000000       0.000000000 )
          (      -0.000789607       0.000000000       0.000000000 )

          (       0.339806758      -0.000000000       0.000000000 )
          (      -0.000000000      -0.339806758      -0.000789607 )
          (       0.000000000      -0.000789607       0.000000000 )

          (      -0.420451431       0.000000000      -0.000000000 )
          (       0.000000000      -0.420451431       0.000000000 )
          (      -0.000000000       0.000000000      -0.025362055 )

           atom      3
          (       0.000000000       0.339806758       0.000789607 )
          (       0.339806758      -0.000000000      -0.000000000 )
          (       0.000789607      -0.000000000       0.000000000 )

          (       0.339806758      -0.000000000      -0.000000000 )
          (      -0.000000000      -0.339806758       0.000789607 )
          (      -0.000000000       0.000789607       0.000000000 )

          (       0.420451431       0.000000000      -0.000000000 )
          (       0.000000000       0.420451431      -0.000000000 )
          (      -0.000000000      -0.000000000       0.025362055 )


     Raman tensor (A^2)

     atom #    1    pol.  1
     -0.949053416023E-15     -0.176670455502E+02      0.000000000000E+00
     -0.176670455502E+02      0.000000000000E+00      0.000000000000E+00
      0.000000000000E+00      0.000000000000E+00      0.109502490649E-17
     atom #    1    pol.  2
     -0.176670455502E+02     -0.854148074421E-14      0.000000000000E+00
     -0.854148074421E-14      0.176670455502E+02      0.000000000000E+00
      0.000000000000E+00      0.000000000000E+00      0.210737641511E-18
     atom #    1    pol.  3
      0.116325979210E-17      0.100741253116E-17      0.000000000000E+00
      0.100741253116E-17      0.775506528070E-18      0.000000000000E+00
      0.000000000000E+00      0.000000000000E+00      0.000000000000E+00
     atom #    2    pol.  1
      0.711790062017E-15      0.871432379458E+01     -0.202494211968E-01
      0.871432379458E+01     -0.284716024807E-14      0.222434394380E-16
     -0.202494211968E-01      0.222434394380E-16      0.000000000000E+00
     atom #    2    pol.  2
      0.871432379458E+01     -0.284716024807E-14      0.222434394380E-16
     -0.284716024807E-14     -0.871432379458E+01     -0.202494211968E-01
      0.222434394380E-16     -0.202494211968E-01      0.358253990568E-17
     atom #    2    pol.  3
     -0.107824515742E+02      0.000000000000E+00     -0.233605313385E-16
      0.000000000000E+00     -0.107824515742E+02      0.134872090567E-16
     -0.233605313385E-16      0.134872090567E-16     -0.650408359401E+00
     atom #    3    pol.  1
      0.474526708012E-15      0.871432379458E+01      0.202494211968E-01
      0.871432379458E+01     -0.427074037210E-14     -0.180727945434E-16
      0.202494211968E-01     -0.180727945434E-16      0.000000000000E+00
     atom #    3    pol.  2
      0.871432379458E+01     -0.142358012403E-14     -0.166825795785E-16
     -0.142358012403E-14     -0.871432379458E+01      0.202494211968E-01
     -0.166825795785E-16      0.202494211968E-01      0.400401518870E-17
     atom #    3    pol.  3
      0.107824515742E+02      0.000000000000E+00     -0.233605313385E-16
      0.000000000000E+00      0.107824515742E+02     -0.134872090567E-16
     -0.233605313385E-16     -0.134872090567E-16      0.650408359401E+00


     Representation #   1 mode #   1

     Self-consistent Calculation

      iter #   1 total cpu time :   269.5 secs   av.it.:   9.1
      thresh= 1.000E-02 alpha_mix =  0.700 |ddv_scf|^2 =  5.844E-05

      iter #   2 total cpu time :   271.0 secs   av.it.:  14.2
      thresh= 7.645E-04 alpha_mix =  0.700 |ddv_scf|^2 =  5.088E-04

      iter #   3 total cpu time :   272.3 secs   av.it.:  12.8
      thresh= 2.256E-03 alpha_mix =  0.700 |ddv_scf|^2 =  4.230E-06

      iter #   4 total cpu time :   273.6 secs   av.it.:  13.1
      thresh= 2.057E-04 alpha_mix =  0.700 |ddv_scf|^2 =  1.085E-07

      iter #   5 total cpu time :   275.0 secs   av.it.:  12.9
      thresh= 3.294E-05 alpha_mix =  0.700 |ddv_scf|^2 =  2.855E-11

      iter #   6 total cpu time :   276.4 secs   av.it.:  14.3
      thresh= 5.343E-07 alpha_mix =  0.700 |ddv_scf|^2 =  1.794E-12

      iter #   7 total cpu time :   277.8 secs   av.it.:  13.1
      thresh= 1.339E-07 alpha_mix =  0.700 |ddv_scf|^2 =  1.810E-15

     End of self-consistent calculation

     Convergence has been achieved 


     Representation #   2 modes #   2   3

     Self-consistent Calculation

      iter #   1 total cpu time :   288.1 secs   av.it.:   7.9
      thresh= 1.000E-02 alpha_mix =  0.700 |ddv_scf|^2 =  1.077E-08

      iter #   2 total cpu time :   291.3 secs   av.it.:  17.1
      thresh= 1.038E-05 alpha_mix =  0.700 |ddv_scf|^2 =  8.950E-10

      iter #   3 total cpu time :   294.4 secs   av.it.:  16.8
      thresh= 2.992E-06 alpha_mix =  0.700 |ddv_scf|^2 =  1.896E-12

      iter #   4 total cpu time :   297.5 secs   av.it.:  16.1
      thresh= 1.377E-07 alpha_mix =  0.700 |ddv_scf|^2 =  3.315E-15

     End of self-consistent calculation

     Convergence has been achieved 


     Representation #   3 modes #   4   5

     Self-consistent Calculation

      iter #   1 total cpu time :   299.4 secs   av.it.:   7.7
      thresh= 1.000E-02 alpha_mix =  0.700 |ddv_scf|^2 =  3.905E-09

      iter #   2 total cpu time :   302.6 secs   av.it.:  16.9
      thresh= 6.249E-06 alpha_mix =  0.700 |ddv_scf|^2 =  1.048E-10

      iter #   3 total cpu time :   305.7 secs   av.it.:  17.0
      thresh= 1.024E-06 alpha_mix =  0.700 |ddv_scf|^2 =  3.850E-12

      iter #   4 total cpu time :   308.9 secs   av.it.:  16.5
      thresh= 1.962E-07 alpha_mix =  0.700 |ddv_scf|^2 =  2.403E-13

      iter #   5 total cpu time :   312.0 secs   av.it.:  16.1
      thresh= 4.902E-08 alpha_mix =  0.700 |ddv_scf|^2 =  1.363E-16

     End of self-consistent calculation

     Convergence has been achieved 


     Representation #   4 mode #   6

     Self-consistent Calculation

      iter #   1 total cpu time :   313.1 secs   av.it.:   9.4
      thresh= 1.000E-02 alpha_mix =  0.700 |ddv_scf|^2 =  5.205E-04

      iter #   2 total cpu time :   314.7 secs   av.it.:  13.5
      thresh= 2.282E-03 alpha_mix =  0.700 |ddv_scf|^2 =  2.241E-02

      iter #   3 total cpu time :   315.8 secs   av.it.:  11.3
      thresh= 1.000E-02 alpha_mix =  0.700 |ddv_scf|^2 =  1.766E-06

      iter #   4 total cpu time :   317.2 secs   av.it.:  13.2
      thresh= 1.329E-04 alpha_mix =  0.700 |ddv_scf|^2 =  1.667E-06

      iter #   5 total cpu time :   318.4 secs   av.it.:  11.7
      thresh= 1.291E-04 alpha_mix =  0.700 |ddv_scf|^2 =  6.995E-09

      iter #   6 total cpu time :   319.6 secs   av.it.:  11.6
      thresh= 8.363E-06 alpha_mix =  0.700 |ddv_scf|^2 =  1.204E-10

      iter #   7 total cpu time :   320.8 secs   av.it.:  11.6
      thresh= 1.097E-06 alpha_mix =  0.700 |ddv_scf|^2 =  5.515E-12

      iter #   8 total cpu time :   322.0 secs   av.it.:  11.6
      thresh= 2.348E-07 alpha_mix =  0.700 |ddv_scf|^2 =  3.212E-14

      iter #   9 total cpu time :   323.2 secs   av.it.:  11.5
      thresh= 1.792E-08 alpha_mix =  0.700 |ddv_scf|^2 =  1.373E-15

     End of self-consistent calculation

     Convergence has been achieved 


     Representation #   5 mode #   7

     Self-consistent Calculation

      iter #   1 total cpu time :   324.3 secs   av.it.:   9.4
      thresh= 1.000E-02 alpha_mix =  0.700 |ddv_scf|^2 =  4.813E-04

      iter #   2 total cpu time :   325.7 secs   av.it.:  13.4
      thresh= 2.194E-03 alpha_mix =  0.700 |ddv_scf|^2 =  1.833E-02

      iter #   3 total cpu time :   326.9 secs   av.it.:  11.3
      thresh= 1.000E-02 alpha_mix =  0.700 |ddv_scf|^2 =  2.739E-05

      iter #   4 total cpu time :   328.3 secs   av.it.:  12.4
      thresh= 5.233E-04 alpha_mix =  0.700 |ddv_scf|^2 =  5.522E-06

      iter #   5 total cpu time :   329.6 secs   av.it.:  11.7
      thresh= 2.350E-04 alpha_mix =  0.700 |ddv_scf|^2 =  5.708E-12

      iter #   6 total cpu time :   331.0 secs   av.it.:  14.6
      thresh= 2.389E-07 alpha_mix =  0.700 |ddv_scf|^2 =  7.706E-12

      iter #   7 total cpu time :   332.2 secs   av.it.:  11.6
      thresh= 2.776E-07 alpha_mix =  0.700 |ddv_scf|^2 =  2.572E-13

      iter #   8 total cpu time :   333.4 secs   av.it.:  11.6
      thresh= 5.072E-08 alpha_mix =  0.700 |ddv_scf|^2 =  9.220E-15

     End of self-consistent calculation

     Convergence has been achieved 


     Representation #   6 modes #   8   9

     Self-consistent Calculation

      iter #   1 total cpu time :   335.3 secs   av.it.:   7.8
      thresh= 1.000E-02 alpha_mix =  0.700 |ddv_scf|^2 =  8.862E-09

      iter #   2 total cpu time :   338.5 secs   av.it.:  16.9
      thresh= 9.414E-06 alpha_mix =  0.700 |ddv_scf|^2 =  5.825E-10

      iter #   3 total cpu time :   341.9 secs   av.it.:  16.6
      thresh= 2.414E-06 alpha_mix =  0.700 |ddv_scf|^2 =  1.941E-12

      iter #   4 total cpu time :   344.9 secs   av.it.:  16.1
      thresh= 1.393E-07 alpha_mix =  0.700 |ddv_scf|^2 =  6.167E-15

     End of self-consistent calculation

     Convergence has been achieved 
 
     Number of q in the star =    1
     List of q in the star:
          1   0.000000000   0.000000000   0.000000000

          Dielectric constant in cartesian axis 

          (       5.113230458      -0.000000000       0.000000000 )
          (      -0.000000000       5.113230458       0.000000000 )
          (       0.000000000       0.000000000       1.259513694 )

          Effective charges (d Force / dE) in cartesian axis without acoustic sum rule applied (asr)

           atom      1   Mo Mean Z*:       -0.97002
      Ex  (       -1.41213        0.00000        0.00000 )
      Ey  (        0.00000       -1.41213       -0.00000 )
      Ez  (       -0.00000       -0.00000       -0.08582 )
           atom      2   S  Mean Z*:        0.49816
      Ex  (        0.72268       -0.00000       -0.00000 )
      Ey  (       -0.00000        0.72268        0.00000 )
      Ez  (        0.00000        0.00000        0.04911 )
           atom      3   S  Mean Z*:        0.49816
      Ex  (        0.72268       -0.00000       -0.00000 )
      Ey  (       -0.00000        0.72268       -0.00000 )
      Ez  (        0.00000       -0.00000        0.04911 )

          Effective charges Sum: Mean:        0.02629
              0.03324       -0.00000       -0.00000
             -0.00000        0.03324        0.00000
             -0.00000       -0.00000        0.01240

          Effective charges (d Force / dE) in cartesian axis with asr applied: 
           atom      1   Mo Mean Z*:       -0.97879
      E*x (       -1.42320        0.00000        0.00000 )
      E*y (        0.00000       -1.42320        0.00000 )
      E*z (       -0.00000       -0.00000       -0.08995 )
           atom      2   S  Mean Z*:        0.48939
      E*x (        0.71160       -0.00000        0.00000 )
      E*y (       -0.00000        0.71160        0.00000 )
      E*z (        0.00000        0.00000        0.04498 )
           atom      3   S  Mean Z*:        0.48939
      E*x (        0.71160       -0.00000       -0.00000 )
      E*y (       -0.00000        0.71160       -0.00000 )
      E*z (        0.00000       -0.00000        0.04498 )

          Effective charges (d P / du) in cartesian axis 

           atom      1   Mo 
      Px  (       -1.41143        0.00000        0.00000 )
      Py  (        0.00000       -1.41143        0.00000 )
      Pz  (        0.00000        0.00000       -0.08496 )
           atom      2   S  
      Px  (        0.72196        0.00000       -0.00000 )
      Py  (       -0.00000        0.72196        0.00000 )
      Pz  (        0.00000        0.00000        0.05127 )
           atom      3   S  
      Px  (        0.72196        0.00000       -0.00000 )
      Py  (       -0.00000        0.72196        0.00000 )
      Pz  (       -0.00000       -0.00000        0.05127 )

     Diagonalizing the dynamical matrix

     q = (    0.000000000   0.000000000   0.000000000 ) 

 **************************************************************************
     freq (    1) =       1.014885 [THz] =      33.852916 [cm-1]
     freq (    2) =       1.038122 [THz] =      34.628033 [cm-1]
     freq (    3) =       1.038122 [THz] =      34.628033 [cm-1]
     freq (    4) =       8.527304 [THz] =     284.440252 [cm-1]
     freq (    5) =       8.527304 [THz] =     284.440252 [cm-1]
     freq (    6) =      11.537998 [THz] =     384.866192 [cm-1]
     freq (    7) =      11.537998 [THz] =     384.866192 [cm-1]
     freq (    8) =      12.096254 [THz] =     403.487619 [cm-1]
     freq (    9) =      13.929664 [THz] =     464.643592 [cm-1]
 **************************************************************************

     Mode symmetry, D_3h (-62m) point group:

     freq (   1-   1) =         33.9  [cm-1]   --> A''2            I  
     freq (   2-   3) =         34.6  [cm-1]   --> E'              I+R
     freq (   4-   5) =        284.4  [cm-1]   --> E''             R  
     freq (   6-   7) =        384.9  [cm-1]   --> E'              I+R
     freq (   8-   8) =        403.5  [cm-1]   --> A'_1            R  
     freq (   9-   9) =        464.6  [cm-1]   --> A''2            I  

     Calculation of q =    0.0000000   0.1924501   0.0000000
 
     Parallelization info
     --------------------
     sticks:   dense  smooth     PW     G-vecs:    dense   smooth      PW
     Min          48      48     15                 6942     6942    1155
     Max          49      49     16                 6963     6963    1166
     Sum         769     769    241               111239   111239   18539
 
     Using Slab Decomposition
 

     Title: 
     phonon calc.                                                               


     bravais-lattice index     =            4
     lattice parameter (alat)  =       5.9296  a.u.
     unit-cell volume          =    1150.8250 (a.u.)^3
     number of atoms/cell      =            3
     number of atomic types    =            2
     number of electrons       =        18.00
     number of Kohn-Sham states=            9
     kinetic-energy cutoff     =      80.0000  Ry
     charge density cutoff     =     320.0000  Ry
     Exchange-correlation= PZ
                           (   1   1   0   0   0   0   0)

     celldm(1)=   5.929593  celldm(2)=   0.000000  celldm(3)=   6.373881
     celldm(4)=   0.000000  celldm(5)=   0.000000  celldm(6)=   0.000000

     crystal axes: (cart. coord. in units of alat)
               a(1) = (   1.000000   0.000000   0.000000 )  
               a(2) = (  -0.500000   0.866025   0.000000 )  
               a(3) = (   0.000000   0.000000   6.373881 )  

     reciprocal axes: (cart. coord. in units 2 pi/alat)
               b(1) = (  1.000000  0.577350  0.000000 )  
               b(2) = (  0.000000  1.154701  0.000000 )  
               b(3) = (  0.000000  0.000000  0.156890 )  


     PseudoPot. # 1 for Mo read from file:
     /public3/home/a2s002871/MoS2/pseudo/Mo.pz-hgh.UPF
     MD5 check sum: ddacfae2313397baf1b67b06fa6affd0
     Pseudo is Norm-conserving, Zval =  6.0
     Generated in analytical, separable form
     Using radial grid of 1229 points,  6 beta functions with: 
                l(1) =   0
                l(2) =   0
                l(3) =   1
                l(4) =   1
                l(5) =   2
                l(6) =   2

     PseudoPot. # 2 for S  read from file:
     /public3/home/a2s002871/MoS2/pseudo/S.pz-hgh.UPF
     MD5 check sum: 38f9f902ee430b58f9df3cf2bf519617
     Pseudo is Norm-conserving, Zval =  6.0
     Generated in analytical, separable form
     Using radial grid of 1151 points,  3 beta functions with: 
                l(1) =   0
                l(2) =   0
                l(3) =   1

     atomic species   valence    mass     pseudopotential
        Mo             6.00    95.94000     Mo( 1.00)
        S              6.00    32.06500     S ( 1.00)

     12 Sym. Ops. (no inversion) found



   Cartesian axes

     site n.     atom                  positions (alat units)
         1           Mo  tau(   1) = (   0.0000000   0.0000000   3.1869406  )
         2           S   tau(   2) = (  -0.0000000   0.5773503   2.6888676  )
         3           S   tau(   3) = (  -0.0000000   0.5773503   3.6850130  )

     number of k points=   156

     Number of k-points >= 100: set verbosity='high' to print them.

     Dense  grid:   111239 G-vectors     FFT dimensions: (  36,  36, 216)

     Estimated max dynamical RAM per process >       6.86 MB

     Estimated total dynamical RAM >     109.82 MB
 ----2D----2D----2D----2D----2D----2D----2D----2D----2D----2D----2D----2D
  The code is running with the 2D cutoff
  Please refer to:
  Sohier, T., Calandra, M., & Mauri, F. (2017), 
  Density functional perturbation theory for gated two-dimensional heterostructu
 res:
  Theoretical developments and application to flexural phonons in graphene.
  Physical Review B, 96(7), 75448. https://doi.org/10.1103/PhysRevB.96.075448
 ----2D----2D----2D----2D----2D----2D----2D----2D----2D----2D----2D----2D

     The potential is recalculated from file :
     ./tmp/_ph0/mos2.save/charge-density

     Starting wfcs are   27 atomic wfcs

     Band Structure Calculation
     Davidson diagonalization with overlap

     ethr =  5.56E-11,  avg # of iterations = 25.9

     total cpu time spent up to now is       16.4 secs

     End of band structure calculation

     Number of k-points >= 100: set verbosity='high' to print the bands.

     highest occupied level (ev):    -6.1214

     Writing config to output data dir ./tmp/_ph0/mos2.save/

     phonon calc.                                                               

     bravais-lattice index     =            4
     lattice parameter (alat)  =       5.9296  a.u.
     unit-cell volume          =    1150.8250 (a.u.)^3
     number of atoms/cell      =            3
     number of atomic types    =            2
     kinetic-energy cut-off    =      80.0000  Ry
     charge density cut-off    =     320.0000  Ry
     convergence threshold     =      1.0E-14
     beta                      =       0.7000
     number of iterations used =            4
     Exchange-correlation= PZ
                           (   1   1   0   0   0   0   0)


     celldm(1)=    5.92959  celldm(2)=    0.00000  celldm(3)=    6.37388
     celldm(4)=    0.00000  celldm(5)=    0.00000  celldm(6)=    0.00000

     crystal axes: (cart. coord. in units of alat)
               a(1) = (  1.0000  0.0000  0.0000 )  
               a(2) = ( -0.5000  0.8660  0.0000 )  
               a(3) = (  0.0000  0.0000  6.3739 )  

     reciprocal axes: (cart. coord. in units 2 pi/alat)
               b(1) = (  1.0000  0.5774  0.0000 )  
               b(2) = (  0.0000  1.1547  0.0000 )  
               b(3) = (  0.0000  0.0000  0.1569 )  


     Atoms inside the unit cell: 

     Cartesian axes

     site n.  atom      mass           positions (alat units)
        1     Mo  95.9400   tau(    1) = (    0.00000    0.00000    3.18694  )
        2     S   32.0650   tau(    2) = (   -0.00000    0.57735    2.68887  )
        3     S   32.0650   tau(    3) = (   -0.00000    0.57735    3.68501  )

     Computing dynamical matrix for 
                    q = (   0.0000000   0.1924501   0.0000000 )
 
      4 Sym.Ops. (no q -> -q+G )


     G cutoff =  284.9968  (   6956 G-vectors)     FFT grid: ( 36, 36,216)
     number of k points=   156

     PseudoPot. # 1 for Mo read from file:
     /public3/home/a2s002871/MoS2/pseudo/Mo.pz-hgh.UPF
     MD5 check sum: ddacfae2313397baf1b67b06fa6affd0
     Pseudo is Norm-conserving, Zval =  6.0
     Generated in analytical, separable form
     Using radial grid of 1229 points,  6 beta functions with: 
                l(1) =   0
                l(2) =   0
                l(3) =   1
                l(4) =   1
                l(5) =   2
                l(6) =   2

     PseudoPot. # 2 for S  read from file:
     /public3/home/a2s002871/MoS2/pseudo/S.pz-hgh.UPF
     MD5 check sum: 38f9f902ee430b58f9df3cf2bf519617
     Pseudo is Norm-conserving, Zval =  6.0
     Generated in analytical, separable form
     Using radial grid of 1151 points,  3 beta functions with: 
                l(1) =   0
                l(2) =   0
                l(3) =   1

     Mode symmetry, C_2v (mm2)  point group:


     Atomic displacements:
     There are    9 irreducible representations

     Representation     1      1 modes -  To be done

     Representation     2      1 modes -  To be done

     Representation     3      1 modes -  To be done

     Representation     4      1 modes -  To be done

     Representation     5      1 modes -  To be done

     Representation     6      1 modes -  To be done

     Representation     7      1 modes -  To be done

     Representation     8      1 modes -  To be done

     Representation     9      1 modes -  To be done



     Alpha used in Ewald sum =   2.8000
     PHONON       :  23m14.33s CPU   6m 1.75s WALL



     Representation #   1 mode #   1

     Self-consistent Calculation

      iter #   1 total cpu time :   365.9 secs   av.it.:   9.6
      thresh= 1.000E-02 alpha_mix =  0.700 |ddv_scf|^2 =  7.789E-05

      iter #   2 total cpu time :   372.0 secs   av.it.:  15.4
      thresh= 8.825E-04 alpha_mix =  0.700 |ddv_scf|^2 =  2.903E-03

      iter #   3 total cpu time :   377.1 secs   av.it.:  12.5
      thresh= 5.388E-03 alpha_mix =  0.700 |ddv_scf|^2 =  1.632E-06

      iter #   4 total cpu time :   382.9 secs   av.it.:  14.7
      thresh= 1.278E-04 alpha_mix =  0.700 |ddv_scf|^2 =  2.440E-07

      iter #   5 total cpu time :   388.8 secs   av.it.:  14.7
      thresh= 4.939E-05 alpha_mix =  0.700 |ddv_scf|^2 =  4.328E-09

      iter #   6 total cpu time :   394.9 secs   av.it.:  15.5
      thresh= 6.579E-06 alpha_mix =  0.700 |ddv_scf|^2 =  1.852E-11

      iter #   7 total cpu time :   401.2 secs   av.it.:  15.6
      thresh= 4.304E-07 alpha_mix =  0.700 |ddv_scf|^2 =  1.747E-11

      iter #   8 total cpu time :   406.9 secs   av.it.:  14.5
      thresh= 4.179E-07 alpha_mix =  0.700 |ddv_scf|^2 =  1.128E-11

      iter #   9 total cpu time :   412.5 secs   av.it.:  13.9
      thresh= 3.358E-07 alpha_mix =  0.700 |ddv_scf|^2 =  1.020E-12

      iter #  10 total cpu time :   418.2 secs   av.it.:  14.6
      thresh= 1.010E-07 alpha_mix =  0.700 |ddv_scf|^2 =  2.919E-13

      iter #  11 total cpu time :   424.2 secs   av.it.:  13.8
      thresh= 5.403E-08 alpha_mix =  0.700 |ddv_scf|^2 =  3.664E-14

      iter #  12 total cpu time :   430.4 secs   av.it.:  15.0
      thresh= 1.914E-08 alpha_mix =  0.700 |ddv_scf|^2 =  7.683E-15

     End of self-consistent calculation

     Convergence has been achieved 


     Representation #   2 mode #   2

     Self-consistent Calculation

      iter #   1 total cpu time :   434.6 secs   av.it.:   9.3
      thresh= 1.000E-02 alpha_mix =  0.700 |ddv_scf|^2 =  2.798E-05

      iter #   2 total cpu time :   440.6 secs   av.it.:  15.5
      thresh= 5.289E-04 alpha_mix =  0.700 |ddv_scf|^2 =  8.640E-04

      iter #   3 total cpu time :   445.7 secs   av.it.:  12.7
      thresh= 2.939E-03 alpha_mix =  0.700 |ddv_scf|^2 =  6.091E-06

      iter #   4 total cpu time :   451.5 secs   av.it.:  14.1
      thresh= 2.468E-04 alpha_mix =  0.700 |ddv_scf|^2 =  1.375E-07

      iter #   5 total cpu time :   457.4 secs   av.it.:  15.1
      thresh= 3.708E-05 alpha_mix =  0.700 |ddv_scf|^2 =  3.805E-09

      iter #   6 total cpu time :   463.7 secs   av.it.:  15.6
      thresh= 6.168E-06 alpha_mix =  0.700 |ddv_scf|^2 =  2.108E-11

      iter #   7 total cpu time :   469.7 secs   av.it.:  15.3
      thresh= 4.591E-07 alpha_mix =  0.700 |ddv_scf|^2 =  1.125E-10

      iter #   8 total cpu time :   475.1 secs   av.it.:  13.7
      thresh= 1.061E-06 alpha_mix =  0.700 |ddv_scf|^2 =  6.219E-13

      iter #   9 total cpu time :   481.1 secs   av.it.:  15.6
      thresh= 7.886E-08 alpha_mix =  0.700 |ddv_scf|^2 =  7.122E-13

      iter #  10 total cpu time :   486.8 secs   av.it.:  14.5
      thresh= 8.439E-08 alpha_mix =  0.700 |ddv_scf|^2 =  5.285E-13

      iter #  11 total cpu time :   492.4 secs   av.it.:  13.8
      thresh= 7.269E-08 alpha_mix =  0.700 |ddv_scf|^2 =  2.810E-13

      iter #  12 total cpu time :   498.1 secs   av.it.:  14.6
      thresh= 5.301E-08 alpha_mix =  0.700 |ddv_scf|^2 =  9.111E-15

     End of self-consistent calculation

     Convergence has been achieved 


     Representation #   3 mode #   3

     Self-consistent Calculation

      iter #   1 total cpu time :   502.2 secs   av.it.:   9.2
      thresh= 1.000E-02 alpha_mix =  0.700 |ddv_scf|^2 =  4.686E-05

      iter #   2 total cpu time :   508.4 secs   av.it.:  15.2
      thresh= 6.845E-04 alpha_mix =  0.700 |ddv_scf|^2 =  1.547E-03

      iter #   3 total cpu time :   513.5 secs   av.it.:  12.5
      thresh= 3.933E-03 alpha_mix =  0.700 |ddv_scf|^2 =  1.539E-06

      iter #   4 total cpu time :   519.4 secs   av.it.:  14.7
      thresh= 1.240E-04 alpha_mix =  0.700 |ddv_scf|^2 =  1.045E-06

      iter #   5 total cpu time :   525.2 secs   av.it.:  13.8
      thresh= 1.022E-04 alpha_mix =  0.700 |ddv_scf|^2 =  1.116E-08

      iter #   6 total cpu time :   531.0 secs   av.it.:  14.8
      thresh= 1.056E-05 alpha_mix =  0.700 |ddv_scf|^2 =  2.627E-11

      iter #   7 total cpu time :   537.1 secs   av.it.:  15.6
      thresh= 5.125E-07 alpha_mix =  0.700 |ddv_scf|^2 =  1.125E-10

      iter #   8 total cpu time :   542.2 secs   av.it.:  12.7
      thresh= 1.061E-06 alpha_mix =  0.700 |ddv_scf|^2 =  8.528E-13

      iter #   9 total cpu time :   548.0 secs   av.it.:  14.8
      thresh= 9.235E-08 alpha_mix =  0.700 |ddv_scf|^2 =  2.571E-14

      iter #  10 total cpu time :   554.1 secs   av.it.:  15.1
      thresh= 1.603E-08 alpha_mix =  0.700 |ddv_scf|^2 =  4.878E-15

     End of self-consistent calculation

     Convergence has been achieved 


     Representation #   4 mode #   4

     Self-consistent Calculation

      iter #   1 total cpu time :   557.7 secs   av.it.:   7.9
      thresh= 1.000E-02 alpha_mix =  0.700 |ddv_scf|^2 =  4.191E-08

      iter #   2 total cpu time :   564.1 secs   av.it.:  16.5
      thresh= 2.047E-05 alpha_mix =  0.700 |ddv_scf|^2 =  3.202E-09

      iter #   3 total cpu time :   570.5 secs   av.it.:  16.3
      thresh= 5.659E-06 alpha_mix =  0.700 |ddv_scf|^2 =  8.500E-12

      iter #   4 total cpu time :   576.6 secs   av.it.:  15.8
      thresh= 2.915E-07 alpha_mix =  0.700 |ddv_scf|^2 =  2.724E-14

      iter #   5 total cpu time :   582.9 secs   av.it.:  15.8
      thresh= 1.651E-08 alpha_mix =  0.700 |ddv_scf|^2 =  3.499E-16

     End of self-consistent calculation

     Convergence has been achieved 


     Representation #   5 mode #   5

     Self-consistent Calculation

      iter #   1 total cpu time :   586.7 secs   av.it.:   7.9
      thresh= 1.000E-02 alpha_mix =  0.700 |ddv_scf|^2 =  5.291E-08

      iter #   2 total cpu time :   593.1 secs   av.it.:  16.7
      thresh= 2.300E-05 alpha_mix =  0.700 |ddv_scf|^2 =  5.550E-09

      iter #   3 total cpu time :   599.5 secs   av.it.:  16.5
      thresh= 7.450E-06 alpha_mix =  0.700 |ddv_scf|^2 =  8.550E-12

      iter #   4 total cpu time :   605.6 secs   av.it.:  15.6
      thresh= 2.924E-07 alpha_mix =  0.700 |ddv_scf|^2 =  1.792E-13

      iter #   5 total cpu time :   611.9 secs   av.it.:  15.8
      thresh= 4.234E-08 alpha_mix =  0.700 |ddv_scf|^2 =  8.280E-16

     End of self-consistent calculation

     Convergence has been achieved 


     Representation #   6 mode #   6

     Self-consistent Calculation

      iter #   1 total cpu time :   615.6 secs   av.it.:   7.8
      thresh= 1.000E-02 alpha_mix =  0.700 |ddv_scf|^2 =  2.141E-08

      iter #   2 total cpu time :   622.0 secs   av.it.:  16.5
      thresh= 1.463E-05 alpha_mix =  0.700 |ddv_scf|^2 =  1.138E-09

      iter #   3 total cpu time :   628.6 secs   av.it.:  16.6
      thresh= 3.374E-06 alpha_mix =  0.700 |ddv_scf|^2 =  2.169E-11

      iter #   4 total cpu time :   634.9 secs   av.it.:  16.3
      thresh= 4.658E-07 alpha_mix =  0.700 |ddv_scf|^2 =  1.092E-12

      iter #   5 total cpu time :   641.1 secs   av.it.:  15.5
      thresh= 1.045E-07 alpha_mix =  0.700 |ddv_scf|^2 =  4.217E-16

     End of self-consistent calculation

     Convergence has been achieved 


     Representation #   7 mode #   7

     Self-consistent Calculation

      iter #   1 total cpu time :   645.0 secs   av.it.:   8.7
      thresh= 1.000E-02 alpha_mix =  0.700 |ddv_scf|^2 =  1.578E-06

      iter #   2 total cpu time :   651.1 secs   av.it.:  15.6
      thresh= 1.256E-04 alpha_mix =  0.700 |ddv_scf|^2 =  8.303E-06

      iter #   3 total cpu time :   656.6 secs   av.it.:  13.9
      thresh= 2.882E-04 alpha_mix =  0.700 |ddv_scf|^2 =  3.201E-07

      iter #   4 total cpu time :   662.3 secs   av.it.:  14.6
      thresh= 5.658E-05 alpha_mix =  0.700 |ddv_scf|^2 =  2.169E-10

      iter #   5 total cpu time :   668.1 secs   av.it.:  14.8
      thresh= 1.473E-06 alpha_mix =  0.700 |ddv_scf|^2 =  1.883E-12

      iter #   6 total cpu time :   674.5 secs   av.it.:  16.2
      thresh= 1.372E-07 alpha_mix =  0.700 |ddv_scf|^2 =  1.318E-13

      iter #   7 total cpu time :   680.8 secs   av.it.:  16.1
      thresh= 3.630E-08 alpha_mix =  0.700 |ddv_scf|^2 =  1.160E-14

      iter #   8 total cpu time :   687.1 secs   av.it.:  16.0
      thresh= 1.077E-08 alpha_mix =  0.700 |ddv_scf|^2 =  1.133E-13

      iter #   9 total cpu time :   692.6 secs   av.it.:  13.7
      thresh= 3.366E-08 alpha_mix =  0.700 |ddv_scf|^2 =  3.996E-15

     End of self-consistent calculation

     Convergence has been achieved 


     Representation #   8 mode #   8

     Self-consistent Calculation

      iter #   1 total cpu time :   696.6 secs   av.it.:   9.1
      thresh= 1.000E-02 alpha_mix =  0.700 |ddv_scf|^2 =  1.024E-05

      iter #   2 total cpu time :   702.9 secs   av.it.:  15.6
      thresh= 3.199E-04 alpha_mix =  0.700 |ddv_scf|^2 =  9.857E-05

      iter #   3 total cpu time :   708.4 secs   av.it.:  13.7
      thresh= 9.928E-04 alpha_mix =  0.700 |ddv_scf|^2 =  7.754E-09

      iter #   4 total cpu time :   714.5 secs   av.it.:  16.0
      thresh= 8.806E-06 alpha_mix =  0.700 |ddv_scf|^2 =  1.724E-09

      iter #   5 total cpu time :   720.3 secs   av.it.:  14.8
      thresh= 4.152E-06 alpha_mix =  0.700 |ddv_scf|^2 =  4.889E-11

      iter #   6 total cpu time :   725.9 secs   av.it.:  14.5
      thresh= 6.992E-07 alpha_mix =  0.700 |ddv_scf|^2 =  1.613E-12

      iter #   7 total cpu time :   731.9 secs   av.it.:  15.0
      thresh= 1.270E-07 alpha_mix =  0.700 |ddv_scf|^2 =  3.611E-13

      iter #   8 total cpu time :   737.6 secs   av.it.:  14.4
      thresh= 6.009E-08 alpha_mix =  0.700 |ddv_scf|^2 =  8.167E-14

      iter #   9 total cpu time :   743.4 secs   av.it.:  15.0
      thresh= 2.858E-08 alpha_mix =  0.700 |ddv_scf|^2 =  7.293E-16

     End of self-consistent calculation

     Convergence has been achieved 


     Representation #   9 mode #   9

     Self-consistent Calculation

      iter #   1 total cpu time :   747.5 secs   av.it.:   8.9
      thresh= 1.000E-02 alpha_mix =  0.700 |ddv_scf|^2 =  8.373E-06

      iter #   2 total cpu time :   753.6 secs   av.it.:  15.5
      thresh= 2.894E-04 alpha_mix =  0.700 |ddv_scf|^2 =  6.959E-05

      iter #   3 total cpu time :   759.0 secs   av.it.:  13.8
      thresh= 8.342E-04 alpha_mix =  0.700 |ddv_scf|^2 =  1.376E-07

      iter #   4 total cpu time :   765.0 secs   av.it.:  14.9
      thresh= 3.710E-05 alpha_mix =  0.700 |ddv_scf|^2 =  1.060E-09

      iter #   5 total cpu time :   770.8 secs   av.it.:  14.7
      thresh= 3.255E-06 alpha_mix =  0.700 |ddv_scf|^2 =  3.027E-12

      iter #   6 total cpu time :   777.1 secs   av.it.:  16.3
      thresh= 1.740E-07 alpha_mix =  0.700 |ddv_scf|^2 =  2.407E-13

      iter #   7 total cpu time :   783.2 secs   av.it.:  15.9
      thresh= 4.906E-08 alpha_mix =  0.700 |ddv_scf|^2 =  2.310E-13

      iter #   8 total cpu time :   788.8 secs   av.it.:  14.3
      thresh= 4.806E-08 alpha_mix =  0.700 |ddv_scf|^2 =  4.444E-14

      iter #   9 total cpu time :   794.9 secs   av.it.:  15.2
      thresh= 2.108E-08 alpha_mix =  0.700 |ddv_scf|^2 =  3.805E-15

     End of self-consistent calculation

     Convergence has been achieved 
 
     Number of q in the star =    3
     List of q in the star:
          1   0.000000000   0.192450090   0.000000000
          2   0.166666667  -0.096225045   0.000000000
          3  -0.166666667  -0.096225045   0.000000000
     In addition there is the -q list: 
          1   0.000000000  -0.192450090   0.000000000
          2  -0.166666667   0.096225045   0.000000000
          3   0.166666667   0.096225045   0.000000000

     Diagonalizing the dynamical matrix

     q = (    0.000000000   0.192450090   0.000000000 ) 

 **************************************************************************
     freq (    1) =       1.486350 [THz] =      49.579287 [cm-1]
     freq (    2) =       2.523283 [THz] =      84.167648 [cm-1]
     freq (    3) =       3.944306 [THz] =     131.567870 [cm-1]
     freq (    4) =       8.691533 [THz] =     289.918330 [cm-1]
     freq (    5) =       9.150441 [THz] =     305.225844 [cm-1]
     freq (    6) =      11.127574 [THz] =     371.175901 [cm-1]
     freq (    7) =      11.420168 [THz] =     380.935813 [cm-1]
     freq (    8) =      12.194838 [THz] =     406.776009 [cm-1]
     freq (    9) =      13.245572 [THz] =     441.824730 [cm-1]
 **************************************************************************

     Mode symmetry, C_2v (mm2)  point group:

     freq (   1-   1) =         49.6  [cm-1]   --> B_2  D_4  S_4      
     freq (   2-   2) =         84.2  [cm-1]   --> B_1  D_3  S_3      
     freq (   3-   3) =        131.6  [cm-1]   --> A_1  D_1  S_1      
     freq (   4-   4) =        289.9  [cm-1]   --> A_2  D_2  S_2      
     freq (   5-   5) =        305.2  [cm-1]   --> B_2  D_4  S_4      
     freq (   6-   6) =        371.2  [cm-1]   --> A_1  D_1  S_1      
     freq (   7-   7) =        380.9  [cm-1]   --> B_1  D_3  S_3      
     freq (   8-   8) =        406.8  [cm-1]   --> A_1  D_1  S_1      
     freq (   9-   9) =        441.8  [cm-1]   --> B_2  D_4  S_4      

     Calculation of q =    0.0000000   0.3849002   0.0000000
 
     Parallelization info
     --------------------
     sticks:   dense  smooth     PW     G-vecs:    dense   smooth      PW
     Min          48      48     15                 6942     6942    1227
     Max          49      49     17                 6963     6963    1246
     Sum         769     769    253               111239   111239   19693
 
     Using Slab Decomposition
 

     Title: 
     phonon calc.                                                               


     bravais-lattice index     =            4
     lattice parameter (alat)  =       5.9296  a.u.
     unit-cell volume          =    1150.8250 (a.u.)^3
     number of atoms/cell      =            3
     number of atomic types    =            2
     number of electrons       =        18.00
     number of Kohn-Sham states=            9
     kinetic-energy cutoff     =      80.0000  Ry
     charge density cutoff     =     320.0000  Ry
     Exchange-correlation= PZ
                           (   1   1   0   0   0   0   0)

     celldm(1)=   5.929593  celldm(2)=   0.000000  celldm(3)=   6.373881
     celldm(4)=   0.000000  celldm(5)=   0.000000  celldm(6)=   0.000000

     crystal axes: (cart. coord. in units of alat)
               a(1) = (   1.000000   0.000000   0.000000 )  
               a(2) = (  -0.500000   0.866025   0.000000 )  
               a(3) = (   0.000000   0.000000   6.373881 )  

     reciprocal axes: (cart. coord. in units 2 pi/alat)
               b(1) = (  1.000000  0.577350  0.000000 )  
               b(2) = (  0.000000  1.154701  0.000000 )  
               b(3) = (  0.000000  0.000000  0.156890 )  


     PseudoPot. # 1 for Mo read from file:
     /public3/home/a2s002871/MoS2/pseudo/Mo.pz-hgh.UPF
     MD5 check sum: ddacfae2313397baf1b67b06fa6affd0
     Pseudo is Norm-conserving, Zval =  6.0
     Generated in analytical, separable form
     Using radial grid of 1229 points,  6 beta functions with: 
                l(1) =   0
                l(2) =   0
                l(3) =   1
                l(4) =   1
                l(5) =   2
                l(6) =   2

     PseudoPot. # 2 for S  read from file:
     /public3/home/a2s002871/MoS2/pseudo/S.pz-hgh.UPF
     MD5 check sum: 38f9f902ee430b58f9df3cf2bf519617
     Pseudo is Norm-conserving, Zval =  6.0
     Generated in analytical, separable form
     Using radial grid of 1151 points,  3 beta functions with: 
                l(1) =   0
                l(2) =   0
                l(3) =   1

     atomic species   valence    mass     pseudopotential
        Mo             6.00    95.94000     Mo( 1.00)
        S              6.00    32.06500     S ( 1.00)

     12 Sym. Ops. (no inversion) found



   Cartesian axes

     site n.     atom                  positions (alat units)
         1           Mo  tau(   1) = (   0.0000000   0.0000000   3.1869406  )
         2           S   tau(   2) = (  -0.0000000   0.5773503   2.6888676  )
         3           S   tau(   3) = (  -0.0000000   0.5773503   3.6850130  )

     number of k points=   156

     Number of k-points >= 100: set verbosity='high' to print them.

     Dense  grid:   111239 G-vectors     FFT dimensions: (  36,  36, 216)

     Estimated max dynamical RAM per process >       6.90 MB

     Estimated total dynamical RAM >     110.35 MB
 ----2D----2D----2D----2D----2D----2D----2D----2D----2D----2D----2D----2D
  The code is running with the 2D cutoff
  Please refer to:
  Sohier, T., Calandra, M., & Mauri, F. (2017), 
  Density functional perturbation theory for gated two-dimensional heterostructu
 res:
  Theoretical developments and application to flexural phonons in graphene.
  Physical Review B, 96(7), 75448. https://doi.org/10.1103/PhysRevB.96.075448
 ----2D----2D----2D----2D----2D----2D----2D----2D----2D----2D----2D----2D

     The potential is recalculated from file :
     ./tmp/_ph0/mos2.save/charge-density

     Starting wfcs are   27 atomic wfcs

     Band Structure Calculation
     Davidson diagonalization with overlap

     ethr =  5.56E-11,  avg # of iterations = 25.9

     total cpu time spent up to now is       33.1 secs

     End of band structure calculation

     Number of k-points >= 100: set verbosity='high' to print the bands.

     highest occupied level (ev):    -6.1214

     Writing config to output data dir ./tmp/_ph0/mos2.save/

     phonon calc.                                                               

     bravais-lattice index     =            4
     lattice parameter (alat)  =       5.9296  a.u.
     unit-cell volume          =    1150.8250 (a.u.)^3
     number of atoms/cell      =            3
     number of atomic types    =            2
     kinetic-energy cut-off    =      80.0000  Ry
     charge density cut-off    =     320.0000  Ry
     convergence threshold     =      1.0E-14
     beta                      =       0.7000
     number of iterations used =            4
     Exchange-correlation= PZ
                           (   1   1   0   0   0   0   0)


     celldm(1)=    5.92959  celldm(2)=    0.00000  celldm(3)=    6.37388
     celldm(4)=    0.00000  celldm(5)=    0.00000  celldm(6)=    0.00000

     crystal axes: (cart. coord. in units of alat)
               a(1) = (  1.0000  0.0000  0.0000 )  
               a(2) = ( -0.5000  0.8660  0.0000 )  
               a(3) = (  0.0000  0.0000  6.3739 )  

     reciprocal axes: (cart. coord. in units 2 pi/alat)
               b(1) = (  1.0000  0.5774  0.0000 )  
               b(2) = (  0.0000  1.1547  0.0000 )  
               b(3) = (  0.0000  0.0000  0.1569 )  


     Atoms inside the unit cell: 

     Cartesian axes

     site n.  atom      mass           positions (alat units)
        1     Mo  95.9400   tau(    1) = (    0.00000    0.00000    3.18694  )
        2     S   32.0650   tau(    2) = (   -0.00000    0.57735    2.68887  )
        3     S   32.0650   tau(    3) = (   -0.00000    0.57735    3.68501  )

     Computing dynamical matrix for 
                    q = (   0.0000000   0.3849002   0.0000000 )
 
      4 Sym.Ops. (no q -> -q+G )


     G cutoff =  284.9968  (   6956 G-vectors)     FFT grid: ( 36, 36,216)
     number of k points=   156

     PseudoPot. # 1 for Mo read from file:
     /public3/home/a2s002871/MoS2/pseudo/Mo.pz-hgh.UPF
     MD5 check sum: ddacfae2313397baf1b67b06fa6affd0
     Pseudo is Norm-conserving, Zval =  6.0
     Generated in analytical, separable form
     Using radial grid of 1229 points,  6 beta functions with: 
                l(1) =   0
                l(2) =   0
                l(3) =   1
                l(4) =   1
                l(5) =   2
                l(6) =   2

     PseudoPot. # 2 for S  read from file:
     /public3/home/a2s002871/MoS2/pseudo/S.pz-hgh.UPF
     MD5 check sum: 38f9f902ee430b58f9df3cf2bf519617
     Pseudo is Norm-conserving, Zval =  6.0
     Generated in analytical, separable form
     Using radial grid of 1151 points,  3 beta functions with: 
                l(1) =   0
                l(2) =   0
                l(3) =   1

     Mode symmetry, C_2v (mm2)  point group:


     Atomic displacements:
     There are    9 irreducible representations

     Representation     1      1 modes -  To be done

     Representation     2      1 modes -  To be done

     Representation     3      1 modes -  To be done

     Representation     4      1 modes -  To be done

     Representation     5      1 modes -  To be done

     Representation     6      1 modes -  To be done

     Representation     7      1 modes -  To be done

     Representation     8      1 modes -  To be done

     Representation     9      1 modes -  To be done



     Alpha used in Ewald sum =   2.8000
     PHONON       :  52m22.23s CPU  13m31.96s WALL



     Representation #   1 mode #   1

     Self-consistent Calculation

      iter #   1 total cpu time :   816.2 secs   av.it.:   9.4
      thresh= 1.000E-02 alpha_mix =  0.700 |ddv_scf|^2 =  1.417E-05

      iter #   2 total cpu time :   822.8 secs   av.it.:  16.0
      thresh= 3.765E-04 alpha_mix =  0.700 |ddv_scf|^2 =  3.509E-04

      iter #   3 total cpu time :   828.4 secs   av.it.:  13.7
      thresh= 1.873E-03 alpha_mix =  0.700 |ddv_scf|^2 =  2.876E-07

      iter #   4 total cpu time :   834.4 secs   av.it.:  15.2
      thresh= 5.363E-05 alpha_mix =  0.700 |ddv_scf|^2 =  3.053E-08

      iter #   5 total cpu time :   840.5 secs   av.it.:  15.5
      thresh= 1.747E-05 alpha_mix =  0.700 |ddv_scf|^2 =  9.480E-10

      iter #   6 total cpu time :   846.7 secs   av.it.:  15.7
      thresh= 3.079E-06 alpha_mix =  0.700 |ddv_scf|^2 =  2.334E-11

      iter #   7 total cpu time :   853.0 secs   av.it.:  15.7
      thresh= 4.831E-07 alpha_mix =  0.700 |ddv_scf|^2 =  3.902E-13

      iter #   8 total cpu time :   859.6 secs   av.it.:  16.6
      thresh= 6.247E-08 alpha_mix =  0.700 |ddv_scf|^2 =  1.593E-12

      iter #   9 total cpu time :   865.4 secs   av.it.:  14.7
      thresh= 1.262E-07 alpha_mix =  0.700 |ddv_scf|^2 =  8.989E-13

      iter #  10 total cpu time :   871.5 secs   av.it.:  14.7
      thresh= 9.481E-08 alpha_mix =  0.700 |ddv_scf|^2 =  5.592E-14

      iter #  11 total cpu time :   877.8 secs   av.it.:  15.8
      thresh= 2.365E-08 alpha_mix =  0.700 |ddv_scf|^2 =  2.770E-14

      iter #  12 total cpu time :   884.1 secs   av.it.:  15.5
      thresh= 1.664E-08 alpha_mix =  0.700 |ddv_scf|^2 =  5.033E-15

     End of self-consistent calculation

     Convergence has been achieved 


     Representation #   2 mode #   2

     Self-consistent Calculation

      iter #   1 total cpu time :   888.3 secs   av.it.:   9.1
      thresh= 1.000E-02 alpha_mix =  0.700 |ddv_scf|^2 =  4.990E-06

      iter #   2 total cpu time :   894.6 secs   av.it.:  16.1
      thresh= 2.234E-04 alpha_mix =  0.700 |ddv_scf|^2 =  9.042E-05

      iter #   3 total cpu time :   900.3 secs   av.it.:  13.8
      thresh= 9.509E-04 alpha_mix =  0.700 |ddv_scf|^2 =  1.371E-06

      iter #   4 total cpu time :   906.2 secs   av.it.:  14.9
      thresh= 1.171E-04 alpha_mix =  0.700 |ddv_scf|^2 =  6.294E-08

      iter #   5 total cpu time :   912.3 secs   av.it.:  14.9
      thresh= 2.509E-05 alpha_mix =  0.700 |ddv_scf|^2 =  3.745E-10

      iter #   6 total cpu time :   918.6 secs   av.it.:  15.8
      thresh= 1.935E-06 alpha_mix =  0.700 |ddv_scf|^2 =  5.051E-12

      iter #   7 total cpu time :   924.8 secs   av.it.:  15.7
      thresh= 2.247E-07 alpha_mix =  0.700 |ddv_scf|^2 =  1.034E-12

      iter #   8 total cpu time :   931.1 secs   av.it.:  15.7
      thresh= 1.017E-07 alpha_mix =  0.700 |ddv_scf|^2 =  4.458E-12

      iter #   9 total cpu time :   936.7 secs   av.it.:  13.8
      thresh= 2.111E-07 alpha_mix =  0.700 |ddv_scf|^2 =  4.038E-14

      iter #  10 total cpu time :   943.1 secs   av.it.:  15.6
      thresh= 2.009E-08 alpha_mix =  0.700 |ddv_scf|^2 =  6.427E-15

     End of self-consistent calculation

     Convergence has been achieved 


     Representation #   3 mode #   3

     Self-consistent Calculation

      iter #   1 total cpu time :   947.4 secs   av.it.:   9.3
      thresh= 1.000E-02 alpha_mix =  0.700 |ddv_scf|^2 =  8.622E-06

      iter #   2 total cpu time :   953.8 secs   av.it.:  16.1
      thresh= 2.936E-04 alpha_mix =  0.700 |ddv_scf|^2 =  1.760E-04

      iter #   3 total cpu time :   959.4 secs   av.it.:  13.7
      thresh= 1.327E-03 alpha_mix =  0.700 |ddv_scf|^2 =  1.330E-06

      iter #   4 total cpu time :   965.3 secs   av.it.:  14.8
      thresh= 1.153E-04 alpha_mix =  0.700 |ddv_scf|^2 =  3.804E-08

      iter #   5 total cpu time :   971.5 secs   av.it.:  15.4
      thresh= 1.950E-05 alpha_mix =  0.700 |ddv_scf|^2 =  7.849E-10

      iter #   6 total cpu time :   977.9 secs   av.it.:  15.8
      thresh= 2.802E-06 alpha_mix =  0.700 |ddv_scf|^2 =  4.639E-11

      iter #   7 total cpu time :   983.8 secs   av.it.:  14.9
      thresh= 6.811E-07 alpha_mix =  0.700 |ddv_scf|^2 =  1.187E-12

      iter #   8 total cpu time :   991.6 secs   av.it.:  15.7
      thresh= 1.089E-07 alpha_mix =  0.700 |ddv_scf|^2 =  2.061E-12

      iter #   9 total cpu time :   997.4 secs   av.it.:  14.4
      thresh= 1.436E-07 alpha_mix =  0.700 |ddv_scf|^2 =  5.318E-13

      iter #  10 total cpu time :  1003.5 secs   av.it.:  14.7
      thresh= 7.292E-08 alpha_mix =  0.700 |ddv_scf|^2 =  7.549E-14

      iter #  11 total cpu time :  1009.5 secs   av.it.:  14.9
      thresh= 2.748E-08 alpha_mix =  0.700 |ddv_scf|^2 =  1.018E-15

     End of self-consistent calculation

     Convergence has been achieved 


     Representation #   4 mode #   4

     Self-consistent Calculation

      iter #   1 total cpu time :  1013.2 secs   av.it.:   7.9
      thresh= 1.000E-02 alpha_mix =  0.700 |ddv_scf|^2 =  5.625E-08

      iter #   2 total cpu time :  1019.7 secs   av.it.:  16.4
      thresh= 2.372E-05 alpha_mix =  0.700 |ddv_scf|^2 =  5.593E-09

      iter #   3 total cpu time :  1026.5 secs   av.it.:  16.2
      thresh= 7.479E-06 alpha_mix =  0.700 |ddv_scf|^2 =  1.022E-11

      iter #   4 total cpu time :  1032.7 secs   av.it.:  15.7
      thresh= 3.197E-07 alpha_mix =  0.700 |ddv_scf|^2 =  3.697E-14

      iter #   5 total cpu time :  1038.9 secs   av.it.:  15.7
      thresh= 1.923E-08 alpha_mix =  0.700 |ddv_scf|^2 =  4.090E-16

     End of self-consistent calculation

     Convergence has been achieved 


     Representation #   5 mode #   5

     Self-consistent Calculation

      iter #   1 total cpu time :  1042.7 secs   av.it.:   8.0
      thresh= 1.000E-02 alpha_mix =  0.700 |ddv_scf|^2 =  7.480E-08

      iter #   2 total cpu time :  1049.5 secs   av.it.:  16.8
      thresh= 2.735E-05 alpha_mix =  0.700 |ddv_scf|^2 =  1.102E-08

      iter #   3 total cpu time :  1056.0 secs   av.it.:  16.4
      thresh= 1.050E-05 alpha_mix =  0.700 |ddv_scf|^2 =  1.045E-11

      iter #   4 total cpu time :  1062.5 secs   av.it.:  15.6
      thresh= 3.233E-07 alpha_mix =  0.700 |ddv_scf|^2 =  3.803E-13

      iter #   5 total cpu time :  1068.8 secs   av.it.:  15.9
      thresh= 6.166E-08 alpha_mix =  0.700 |ddv_scf|^2 =  1.819E-15

     End of self-consistent calculation

     Convergence has been achieved 


     Representation #   6 mode #   6

     Self-consistent Calculation

      iter #   1 total cpu time :  1072.6 secs   av.it.:   7.8
      thresh= 1.000E-02 alpha_mix =  0.700 |ddv_scf|^2 =  3.424E-08

      iter #   2 total cpu time :  1079.1 secs   av.it.:  16.5
      thresh= 1.850E-05 alpha_mix =  0.700 |ddv_scf|^2 =  3.314E-09

      iter #   3 total cpu time :  1085.5 secs   av.it.:  16.4
      thresh= 5.757E-06 alpha_mix =  0.700 |ddv_scf|^2 =  3.003E-11

      iter #   4 total cpu time :  1091.9 secs   av.it.:  16.2
      thresh= 5.480E-07 alpha_mix =  0.700 |ddv_scf|^2 =  1.279E-12

      iter #   5 total cpu time :  1098.0 secs   av.it.:  15.1
      thresh= 1.131E-07 alpha_mix =  0.700 |ddv_scf|^2 =  2.731E-16

     End of self-consistent calculation

     Convergence has been achieved 


     Representation #   7 mode #   7

     Self-consistent Calculation

      iter #   1 total cpu time :  1101.8 secs   av.it.:   8.4
      thresh= 1.000E-02 alpha_mix =  0.700 |ddv_scf|^2 =  2.334E-07

      iter #   2 total cpu time :  1108.5 secs   av.it.:  16.6
      thresh= 4.831E-05 alpha_mix =  0.700 |ddv_scf|^2 =  2.927E-07

      iter #   3 total cpu time :  1114.6 secs   av.it.:  15.4
      thresh= 5.410E-05 alpha_mix =  0.700 |ddv_scf|^2 =  2.334E-08

      iter #   4 total cpu time :  1120.7 secs   av.it.:  15.4
      thresh= 1.528E-05 alpha_mix =  0.700 |ddv_scf|^2 =  2.110E-10

      iter #   5 total cpu time :  1127.1 secs   av.it.:  15.8
      thresh= 1.452E-06 alpha_mix =  0.700 |ddv_scf|^2 =  4.364E-12

      iter #   6 total cpu time :  1133.4 secs   av.it.:  15.8
      thresh= 2.089E-07 alpha_mix =  0.700 |ddv_scf|^2 =  9.993E-14

      iter #   7 total cpu time :  1139.7 secs   av.it.:  15.8
      thresh= 3.161E-08 alpha_mix =  0.700 |ddv_scf|^2 =  1.447E-15

     End of self-consistent calculation

     Convergence has been achieved 


     Representation #   8 mode #   8

     Self-consistent Calculation

      iter #   1 total cpu time :  1143.6 secs   av.it.:   8.8
      thresh= 1.000E-02 alpha_mix =  0.700 |ddv_scf|^2 =  8.799E-07

      iter #   2 total cpu time :  1150.0 secs   av.it.:  16.2
      thresh= 9.380E-05 alpha_mix =  0.700 |ddv_scf|^2 =  2.446E-06

      iter #   3 total cpu time :  1156.0 secs   av.it.:  14.8
      thresh= 1.564E-04 alpha_mix =  0.700 |ddv_scf|^2 =  5.366E-09

      iter #   4 total cpu time :  1162.3 secs   av.it.:  15.9
      thresh= 7.326E-06 alpha_mix =  0.700 |ddv_scf|^2 =  7.593E-11

      iter #   5 total cpu time :  1168.8 secs   av.it.:  16.2
      thresh= 8.714E-07 alpha_mix =  0.700 |ddv_scf|^2 =  3.095E-12

      iter #   6 total cpu time :  1175.1 secs   av.it.:  16.1
      thresh= 1.759E-07 alpha_mix =  0.700 |ddv_scf|^2 =  3.704E-13

      iter #   7 total cpu time :  1181.5 secs   av.it.:  15.8
      thresh= 6.086E-08 alpha_mix =  0.700 |ddv_scf|^2 =  7.139E-15

     End of self-consistent calculation

     Convergence has been achieved 


     Representation #   9 mode #   9

     Self-consistent Calculation

      iter #   1 total cpu time :  1185.5 secs   av.it.:   8.9
      thresh= 1.000E-02 alpha_mix =  0.700 |ddv_scf|^2 =  1.736E-06

      iter #   2 total cpu time :  1191.9 secs   av.it.:  16.1
      thresh= 1.317E-04 alpha_mix =  0.700 |ddv_scf|^2 =  4.193E-06

      iter #   3 total cpu time :  1197.9 secs   av.it.:  14.9
      thresh= 2.048E-04 alpha_mix =  0.700 |ddv_scf|^2 =  2.765E-08

      iter #   4 total cpu time :  1204.0 secs   av.it.:  15.7
      thresh= 1.663E-05 alpha_mix =  0.700 |ddv_scf|^2 =  9.213E-11

      iter #   5 total cpu time :  1210.3 secs   av.it.:  15.9
      thresh= 9.598E-07 alpha_mix =  0.700 |ddv_scf|^2 =  3.988E-12

      iter #   6 total cpu time :  1216.6 secs   av.it.:  15.7
      thresh= 1.997E-07 alpha_mix =  0.700 |ddv_scf|^2 =  1.144E-13

      iter #   7 total cpu time :  1222.7 secs   av.it.:  15.6
      thresh= 3.382E-08 alpha_mix =  0.700 |ddv_scf|^2 =  1.911E-15

     End of self-consistent calculation

     Convergence has been achieved 
 
     Number of q in the star =    3
     List of q in the star:
          1   0.000000000   0.384900179   0.000000000
          2   0.333333333  -0.192450090   0.000000000
          3  -0.333333333  -0.192450090   0.000000000
     In addition there is the -q list: 
          1   0.000000000  -0.384900179   0.000000000
          2  -0.333333333   0.192450090   0.000000000
          3   0.333333333   0.192450090   0.000000000

     Diagonalizing the dynamical matrix

     q = (    0.000000000   0.384900179   0.000000000 ) 

 **************************************************************************
     freq (    1) =       3.848412 [THz] =     128.369193 [cm-1]
     freq (    2) =       4.129167 [THz] =     137.734195 [cm-1]
     freq (    3) =       6.440678 [THz] =     214.837880 [cm-1]
     freq (    4) =       9.006644 [THz] =     300.429302 [cm-1]
     freq (    5) =       9.943880 [THz] =     331.692138 [cm-1]
     freq (    6) =      10.532134 [THz] =     351.314163 [cm-1]
     freq (    7) =      11.141136 [THz] =     371.628279 [cm-1]
     freq (    8) =      11.944670 [THz] =     398.431307 [cm-1]
     freq (    9) =      12.213298 [THz] =     407.391765 [cm-1]
 **************************************************************************

     Mode symmetry, C_2v (mm2)  point group:

     freq (   1-   1) =        128.4  [cm-1]   --> B_2  D_4  S_4      
     freq (   2-   2) =        137.7  [cm-1]   --> B_1  D_3  S_3      
     freq (   3-   3) =        214.8  [cm-1]   --> A_1  D_1  S_1      
     freq (   4-   4) =        300.4  [cm-1]   --> A_2  D_2  S_2      
     freq (   5-   5) =        331.7  [cm-1]   --> B_2  D_4  S_4      
     freq (   6-   6) =        351.3  [cm-1]   --> A_1  D_1  S_1      
     freq (   7-   7) =        371.6  [cm-1]   --> B_1  D_3  S_3      
     freq (   8-   8) =        398.4  [cm-1]   --> B_2  D_4  S_4      
     freq (   9-   9) =        407.4  [cm-1]   --> A_1  D_1  S_1      

     Calculation of q =    0.0000000  -0.5773503   0.0000000
 
     Parallelization info
     --------------------
     sticks:   dense  smooth     PW     G-vecs:    dense   smooth      PW
     Min          48      48     15                 6942     6942    1269
     Max          49      49     16                 6963     6963    1294
     Sum         769     769    253               111239   111239   20547
 
     Using Slab Decomposition
 

     Title: 
     phonon calc.                                                               


     bravais-lattice index     =            4
     lattice parameter (alat)  =       5.9296  a.u.
     unit-cell volume          =    1150.8250 (a.u.)^3
     number of atoms/cell      =            3
     number of atomic types    =            2
     number of electrons       =        18.00
     number of Kohn-Sham states=            9
     kinetic-energy cutoff     =      80.0000  Ry
     charge density cutoff     =     320.0000  Ry
     Exchange-correlation= PZ
                           (   1   1   0   0   0   0   0)

     celldm(1)=   5.929593  celldm(2)=   0.000000  celldm(3)=   6.373881
     celldm(4)=   0.000000  celldm(5)=   0.000000  celldm(6)=   0.000000

     crystal axes: (cart. coord. in units of alat)
               a(1) = (   1.000000   0.000000   0.000000 )  
               a(2) = (  -0.500000   0.866025   0.000000 )  
               a(3) = (   0.000000   0.000000   6.373881 )  

     reciprocal axes: (cart. coord. in units 2 pi/alat)
               b(1) = (  1.000000  0.577350  0.000000 )  
               b(2) = (  0.000000  1.154701  0.000000 )  
               b(3) = (  0.000000  0.000000  0.156890 )  


     PseudoPot. # 1 for Mo read from file:
     /public3/home/a2s002871/MoS2/pseudo/Mo.pz-hgh.UPF
     MD5 check sum: ddacfae2313397baf1b67b06fa6affd0
     Pseudo is Norm-conserving, Zval =  6.0
     Generated in analytical, separable form
     Using radial grid of 1229 points,  6 beta functions with: 
                l(1) =   0
                l(2) =   0
                l(3) =   1
                l(4) =   1
                l(5) =   2
                l(6) =   2

     PseudoPot. # 2 for S  read from file:
     /public3/home/a2s002871/MoS2/pseudo/S.pz-hgh.UPF
     MD5 check sum: 38f9f902ee430b58f9df3cf2bf519617
     Pseudo is Norm-conserving, Zval =  6.0
     Generated in analytical, separable form
     Using radial grid of 1151 points,  3 beta functions with: 
                l(1) =   0
                l(2) =   0
                l(3) =   1

     atomic species   valence    mass     pseudopotential
        Mo             6.00    95.94000     Mo( 1.00)
        S              6.00    32.06500     S ( 1.00)

     12 Sym. Ops. (no inversion) found



   Cartesian axes

     site n.     atom                  positions (alat units)
         1           Mo  tau(   1) = (   0.0000000   0.0000000   3.1869406  )
         2           S   tau(   2) = (  -0.0000000   0.5773503   2.6888676  )
         3           S   tau(   3) = (  -0.0000000   0.5773503   3.6850130  )

     number of k points=    86
                       cart. coord. in units 2pi/alat
        k(    1) = (   0.0000000   0.0000000   0.0000000), wk =   0.0138889
        k(    2) = (   0.0000000  -0.5773503   0.0000000), wk =   0.0000000
        k(    3) = (   0.0000000   0.0962250   0.0000000), wk =   0.0277778
        k(    4) = (   0.0000000  -0.4811252   0.0000000), wk =   0.0000000
        k(    5) = (   0.0000000   0.1924501   0.0000000), wk =   0.0277778
        k(    6) = (   0.0000000  -0.3849002   0.0000000), wk =   0.0000000
        k(    7) = (   0.0000000   0.2886751   0.0000000), wk =   0.0277778
        k(    8) = (   0.0000000  -0.2886751   0.0000000), wk =   0.0000000
        k(    9) = (   0.0000000   0.3849002   0.0000000), wk =   0.0277778
        k(   10) = (   0.0000000  -0.1924501   0.0000000), wk =   0.0000000
        k(   11) = (   0.0000000   0.4811252   0.0000000), wk =   0.0277778
        k(   12) = (   0.0000000  -0.0962250   0.0000000), wk =   0.0000000
        k(   13) = (   0.0000000  -0.5773503   0.0000000), wk =   0.0138889
        k(   14) = (   0.0000000  -1.1547005   0.0000000), wk =   0.0000000
        k(   15) = (   0.0833333   0.1443376   0.0000000), wk =   0.0555556
        k(   16) = (   0.0833333  -0.4330127   0.0000000), wk =   0.0000000
        k(   17) = (   0.0833333   0.2405626   0.0000000), wk =   0.0555556
        k(   18) = (   0.0833333  -0.3367877   0.0000000), wk =   0.0000000
        k(   19) = (   0.0833333   0.3367877   0.0000000), wk =   0.0555556
        k(   20) = (   0.0833333  -0.2405626   0.0000000), wk =   0.0000000
        k(   21) = (   0.0833333   0.4330127   0.0000000), wk =   0.0555556
        k(   22) = (   0.0833333  -0.1443376   0.0000000), wk =   0.0000000
        k(   23) = (   0.0833333   0.5292377   0.0000000), wk =   0.0555556
        k(   24) = (   0.0833333  -0.0481125   0.0000000), wk =   0.0000000
        k(   25) = (   0.1666667   0.2886751   0.0000000), wk =   0.0555556
        k(   26) = (   0.1666667  -0.2886751   0.0000000), wk =   0.0000000
        k(   27) = (   0.1666667   0.3849002   0.0000000), wk =   0.0555556
        k(   28) = (   0.1666667  -0.1924501   0.0000000), wk =   0.0000000
        k(   29) = (   0.1666667   0.4811252   0.0000000), wk =   0.0555556
        k(   30) = (   0.1666667  -0.0962250   0.0000000), wk =   0.0000000
        k(   31) = (   0.1666667   0.5773503   0.0000000), wk =   0.0277778
        k(   32) = (   0.1666667   0.0000000   0.0000000), wk =   0.0000000
        k(   33) = (   0.2500000   0.4330127   0.0000000), wk =   0.0555556
        k(   34) = (   0.2500000  -0.1443376   0.0000000), wk =   0.0000000
        k(   35) = (   0.2500000   0.5292377   0.0000000), wk =   0.0555556
        k(   36) = (   0.2500000  -0.0481125   0.0000000), wk =   0.0000000
        k(   37) = (   0.3333333   0.5773503   0.0000000), wk =   0.0277778
        k(   38) = (   0.3333333   0.0000000   0.0000000), wk =   0.0000000
        k(   39) = (   0.0833333  -0.0481125   0.0000000), wk =   0.0555556
        k(   40) = (   0.0833333  -0.6254628   0.0000000), wk =   0.0000000
        k(   41) = (   0.1666667  -0.0962250   0.0000000), wk =   0.0555556
        k(   42) = (   0.1666667  -0.6735753   0.0000000), wk =   0.0000000
        k(   43) = (   0.2500000  -0.1443376   0.0000000), wk =   0.0555556
        k(   44) = (   0.2500000  -0.7216878   0.0000000), wk =   0.0000000
        k(   45) = (   0.3333333  -0.1924501   0.0000000), wk =   0.0555556
        k(   46) = (   0.3333333  -0.7698004   0.0000000), wk =   0.0000000
        k(   47) = (   0.4166667  -0.2405626   0.0000000), wk =   0.0555556
        k(   48) = (   0.4166667  -0.8179129   0.0000000), wk =   0.0000000
        k(   49) = (  -0.5000000   0.2886751   0.0000000), wk =   0.0277778
        k(   50) = (  -0.5000000  -0.2886751   0.0000000), wk =   0.0000000
        k(   51) = (  -0.1666667  -0.0000000   0.0000000), wk =   0.0277778
        k(   52) = (  -0.1666667  -0.5773503   0.0000000), wk =   0.0000000
        k(   53) = (   0.1666667  -0.1924501   0.0000000), wk =   0.0555556
        k(   54) = (   0.1666667  -0.7698004   0.0000000), wk =   0.0000000
        k(   55) = (  -0.2500000  -0.0481125   0.0000000), wk =   0.0555556
        k(   56) = (  -0.2500000  -0.6254628   0.0000000), wk =   0.0000000
        k(   57) = (   0.2500000  -0.2405626   0.0000000), wk =   0.0555556
        k(   58) = (   0.2500000  -0.8179129   0.0000000), wk =   0.0000000
        k(   59) = (  -0.3333333  -0.0962250   0.0000000), wk =   0.0555556
        k(   60) = (  -0.3333333  -0.6735753   0.0000000), wk =   0.0000000
        k(   61) = (   0.3333333  -0.2886751   0.0000000), wk =   0.0555556
        k(   62) = (   0.3333333  -0.8660254   0.0000000), wk =   0.0000000
        k(   63) = (  -0.4166667  -0.1443376   0.0000000), wk =   0.0555556
        k(   64) = (  -0.4166667  -0.7216878   0.0000000), wk =   0.0000000
        k(   65) = (   0.4166667  -0.3367877   0.0000000), wk =   0.0555556
        k(   66) = (   0.4166667  -0.9141379   0.0000000), wk =   0.0000000
        k(   67) = (  -0.5000000  -0.1924501   0.0000000), wk =   0.0555556
        k(   68) = (  -0.5000000  -0.7698004   0.0000000), wk =   0.0000000
        k(   69) = (  -0.3333333  -0.0000000   0.0000000), wk =   0.0277778
        k(   70) = (  -0.3333333  -0.5773503   0.0000000), wk =   0.0000000
        k(   71) = (   0.2500000  -0.3367877   0.0000000), wk =   0.0555556
        k(   72) = (   0.2500000  -0.9141379   0.0000000), wk =   0.0000000
        k(   73) = (  -0.4166667  -0.0481125   0.0000000), wk =   0.0555556
        k(   74) = (  -0.4166667  -0.6254628   0.0000000), wk =   0.0000000
        k(   75) = (   0.3333333  -0.3849002   0.0000000), wk =   0.0555556
        k(   76) = (   0.3333333  -0.9622504   0.0000000), wk =   0.0000000
        k(   77) = (  -0.5000000  -0.0962250   0.0000000), wk =   0.0555556
        k(   78) = (  -0.5000000  -0.6735753   0.0000000), wk =   0.0000000
        k(   79) = (   0.4166667  -0.4330127   0.0000000), wk =   0.0555556
        k(   80) = (   0.4166667  -1.0103630   0.0000000), wk =   0.0000000
        k(   81) = (  -0.5000000   0.0000000   0.0000000), wk =   0.0277778
        k(   82) = (  -0.5000000  -0.5773503   0.0000000), wk =   0.0000000
        k(   83) = (   0.3333333  -0.4811252   0.0000000), wk =   0.0555556
        k(   84) = (   0.3333333  -1.0584755   0.0000000), wk =   0.0000000
        k(   85) = (  -0.5833333  -0.0481125   0.0000000), wk =   0.0555556
        k(   86) = (  -0.5833333  -0.6254628   0.0000000), wk =   0.0000000

     Dense  grid:   111239 G-vectors     FFT dimensions: (  36,  36, 216)

     Estimated max dynamical RAM per process >       6.93 MB

     Estimated total dynamical RAM >     110.84 MB
 ----2D----2D----2D----2D----2D----2D----2D----2D----2D----2D----2D----2D
  The code is running with the 2D cutoff
  Please refer to:
  Sohier, T., Calandra, M., & Mauri, F. (2017), 
  Density functional perturbation theory for gated two-dimensional heterostructu
 res:
  Theoretical developments and application to flexural phonons in graphene.
  Physical Review B, 96(7), 75448. https://doi.org/10.1103/PhysRevB.96.075448
 ----2D----2D----2D----2D----2D----2D----2D----2D----2D----2D----2D----2D

     The potential is recalculated from file :
     ./tmp/_ph0/mos2.save/charge-density

     Starting wfcs are   27 atomic wfcs

     Band Structure Calculation
     Davidson diagonalization with overlap

     ethr =  5.56E-11,  avg # of iterations = 25.6

     total cpu time spent up to now is       42.3 secs

     End of band structure calculation

          k = 0.0000 0.0000 0.0000 ( 13997 PWs)   bands (ev):

   -20.4056 -19.1224 -11.9115  -8.7653  -8.7653  -7.9862  -7.5631  -7.5631
    -6.2816

          k = 0.0000-0.5774 0.0000 ( 13882 PWs)   bands (ev):

   -18.3976 -18.1427 -12.1124 -11.1240 -10.3162  -9.3267  -8.0599  -6.9625
    -6.8250

          k = 0.0000 0.0962 0.0000 ( 13995 PWs)   bands (ev):

   -20.2995 -19.0686 -11.7895  -8.9978  -8.6477  -8.4381  -7.7367  -7.2748
    -6.3196

          k = 0.0000-0.4811 0.0000 ( 13840 PWs)   bands (ev):

   -18.5777 -18.2246 -11.9330 -10.9392 -10.2293  -9.2403  -7.9948  -7.0708
    -7.0042

          k = 0.0000 0.1925 0.0000 ( 13961 PWs)   bands (ev):

   -19.9959 -18.9149 -11.4821  -9.5357  -9.0978  -8.3188  -8.1456  -7.1989
    -6.5224

          k = 0.0000-0.3849 0.0000 ( 13876 PWs)   bands (ev):

   -19.0198 -18.4326 -11.5219 -10.4467 -10.1089  -8.9897  -7.7912  -7.3917
    -7.1947

          k = 0.0000 0.2887 0.0000 ( 13951 PWs)   bands (ev):

   -19.5403 -18.6869 -11.2607 -10.0008  -9.7892  -8.6039  -7.8560  -7.4686
    -6.9437

          k = 0.0000-0.2887 0.0000 ( 13951 PWs)   bands (ev):

   -19.5403 -18.6869 -11.2607 -10.0008  -9.7892  -8.6039  -7.8560  -7.4686
    -6.9437

          k = 0.0000 0.3849 0.0000 ( 13876 PWs)   bands (ev):

   -19.0198 -18.4326 -11.5219 -10.4467 -10.1089  -8.9897  -7.7912  -7.3917
    -7.1947

          k = 0.0000-0.1925 0.0000 ( 13961 PWs)   bands (ev):

   -19.9959 -18.9149 -11.4821  -9.5357  -9.0978  -8.3188  -8.1456  -7.1989
    -6.5224

          k = 0.0000 0.4811 0.0000 ( 13840 PWs)   bands (ev):

   -18.5777 -18.2246 -11.9330 -10.9392 -10.2293  -9.2403  -7.9948  -7.0708
    -7.0042

          k = 0.0000-0.0962 0.0000 ( 13995 PWs)   bands (ev):

   -20.2995 -19.0686 -11.7895  -8.9978  -8.6477  -8.4381  -7.7367  -7.2748
    -6.3196

          k = 0.0000-0.5774 0.0000 ( 13882 PWs)   bands (ev):

   -18.3976 -18.1427 -12.1124 -11.1240 -10.3162  -9.3267  -8.0599  -6.9625
    -6.8250

          k = 0.0000-1.1547 0.0000 ( 13997 PWs)   bands (ev):

   -20.4056 -19.1224 -11.9115  -8.7653  -8.7653  -7.9862  -7.5631  -7.5631
    -6.2816

          k = 0.0833 0.1443 0.0000 ( 13971 PWs)   bands (ev):

   -20.0946 -18.9647 -11.5711  -9.3756  -8.8748  -8.4332  -8.1412  -7.0834
    -6.4397

          k = 0.0833-0.4330 0.0000 ( 13895 PWs)   bands (ev):

[...]
         2           S   tau(   2) = (  -0.0000000   0.5773503   2.6888676  )
         3           S   tau(   3) = (  -0.0000000   0.5773503   3.6850130  )

     number of k points=   100

     Number of k-points >= 100: set verbosity='high' to print them.

     Dense  grid:   111239 G-vectors     FFT dimensions: (  36,  36, 216)

     Estimated max dynamical RAM per process >       6.94 MB

     Estimated total dynamical RAM >     111.10 MB
 ----2D----2D----2D----2D----2D----2D----2D----2D----2D----2D----2D----2D
  The code is running with the 2D cutoff
  Please refer to:
  Sohier, T., Calandra, M., & Mauri, F. (2017), 
  Density functional perturbation theory for gated two-dimensional heterostructu
 res:
  Theoretical developments and application to flexural phonons in graphene.
  Physical Review B, 96(7), 75448. https://doi.org/10.1103/PhysRevB.96.075448
 ----2D----2D----2D----2D----2D----2D----2D----2D----2D----2D----2D----2D

     The potential is recalculated from file :
     ./tmp/_ph0/mos2.save/charge-density

     Starting wfcs are   27 atomic wfcs

     Band Structure Calculation
     Davidson diagonalization with overlap

     ethr =  5.56E-11,  avg # of iterations = 25.6

     total cpu time spent up to now is      114.4 secs

     End of band structure calculation

     Number of k-points >= 100: set verbosity='high' to print the bands.

     highest occupied level (ev):    -6.1214

     Writing config to output data dir ./tmp/_ph0/mos2.save/

     phonon calc.                                                               

     bravais-lattice index     =            4
     lattice parameter (alat)  =       5.9296  a.u.
     unit-cell volume          =    1150.8250 (a.u.)^3
     number of atoms/cell      =            3
     number of atomic types    =            2
     kinetic-energy cut-off    =      80.0000  Ry
     charge density cut-off    =     320.0000  Ry
     convergence threshold     =      1.0E-14
     beta                      =       0.7000
     number of iterations used =            4
     Exchange-correlation= PZ
                           (   1   1   0   0   0   0   0)


     celldm(1)=    5.92959  celldm(2)=    0.00000  celldm(3)=    6.37388
     celldm(4)=    0.00000  celldm(5)=    0.00000  celldm(6)=    0.00000

     crystal axes: (cart. coord. in units of alat)
               a(1) = (  1.0000  0.0000  0.0000 )  
               a(2) = ( -0.5000  0.8660  0.0000 )  
               a(3) = (  0.0000  0.0000  6.3739 )  

     reciprocal axes: (cart. coord. in units 2 pi/alat)
               b(1) = (  1.0000  0.5774  0.0000 )  
               b(2) = (  0.0000  1.1547  0.0000 )  
               b(3) = (  0.0000  0.0000  0.1569 )  


     Atoms inside the unit cell: 

     Cartesian axes

     site n.  atom      mass           positions (alat units)
        1     Mo  95.9400   tau(    1) = (    0.00000    0.00000    3.18694  )
        2     S   32.0650   tau(    2) = (   -0.00000    0.57735    2.68887  )
        3     S   32.0650   tau(    3) = (   -0.00000    0.57735    3.68501  )

     Computing dynamical matrix for 
                    q = (   0.3333333   0.5773503   0.0000000 )
 
      6 Sym.Ops. (no q -> -q+G )


     G cutoff =  284.9968  (   6956 G-vectors)     FFT grid: ( 36, 36,216)
     number of k points=   100

     PseudoPot. # 1 for Mo read from file:
     /public3/home/a2s002871/MoS2/pseudo/Mo.pz-hgh.UPF
     MD5 check sum: ddacfae2313397baf1b67b06fa6affd0
     Pseudo is Norm-conserving, Zval =  6.0
     Generated in analytical, separable form
     Using radial grid of 1229 points,  6 beta functions with: 
                l(1) =   0
                l(2) =   0
                l(3) =   1
                l(4) =   1
                l(5) =   2
                l(6) =   2

     PseudoPot. # 2 for S  read from file:
     /public3/home/a2s002871/MoS2/pseudo/S.pz-hgh.UPF
     MD5 check sum: 38f9f902ee430b58f9df3cf2bf519617
     Pseudo is Norm-conserving, Zval =  6.0
     Generated in analytical, separable form
     Using radial grid of 1151 points,  3 beta functions with: 
                l(1) =   0
                l(2) =   0
                l(3) =   1

     Mode symmetry, C_3h (-6)   point group:


     Atomic displacements:
     There are    9 irreducible representations

     Representation     1      1 modes -  To be done

     Representation     2      1 modes -  To be done

     Representation     3      1 modes -  To be done

     Representation     4      1 modes -  To be done

     Representation     5      1 modes -  To be done

     Representation     6      1 modes -  To be done

     Representation     7      1 modes -  To be done

     Representation     8      1 modes -  To be done

     Representation     9      1 modes -  To be done



     Alpha used in Ewald sum =   2.8000
     PHONON       :      3h44m CPU  57m53.88s WALL



     Representation #   1 mode #   1

     Self-consistent Calculation

      iter #   1 total cpu time :  3476.5 secs   av.it.:   8.9
      thresh= 1.000E-02 alpha_mix =  0.700 |ddv_scf|^2 =  2.454E-06

      iter #   2 total cpu time :  3480.7 secs   av.it.:  16.6
      thresh= 1.567E-04 alpha_mix =  0.700 |ddv_scf|^2 =  3.411E-05

      iter #   3 total cpu time :  3484.4 secs   av.it.:  14.6
      thresh= 5.840E-04 alpha_mix =  0.700 |ddv_scf|^2 =  2.070E-07

      iter #   4 total cpu time :  3488.3 secs   av.it.:  14.9
      thresh= 4.550E-05 alpha_mix =  0.700 |ddv_scf|^2 =  4.712E-11

      iter #   5 total cpu time :  3492.3 secs   av.it.:  16.2
      thresh= 6.864E-07 alpha_mix =  0.700 |ddv_scf|^2 =  1.916E-12

      iter #   6 total cpu time :  3496.5 secs   av.it.:  15.8
      thresh= 1.384E-07 alpha_mix =  0.700 |ddv_scf|^2 =  3.700E-14

      iter #   7 total cpu time :  3500.4 secs   av.it.:  15.4
      thresh= 1.923E-08 alpha_mix =  0.700 |ddv_scf|^2 =  9.420E-17

     End of self-consistent calculation

     Convergence has been achieved 


     Representation #   2 mode #   2

     Self-consistent Calculation

      iter #   1 total cpu time :  3502.9 secs   av.it.:   8.7
      thresh= 1.000E-02 alpha_mix =  0.700 |ddv_scf|^2 =  7.043E-07

      iter #   2 total cpu time :  3507.2 secs   av.it.:  16.6
      thresh= 8.392E-05 alpha_mix =  0.700 |ddv_scf|^2 =  6.221E-07

      iter #   3 total cpu time :  3511.3 secs   av.it.:  15.7
      thresh= 7.887E-05 alpha_mix =  0.700 |ddv_scf|^2 =  9.605E-11

      iter #   4 total cpu time :  3515.4 secs   av.it.:  16.7
      thresh= 9.801E-07 alpha_mix =  0.700 |ddv_scf|^2 =  7.187E-12

      iter #   5 total cpu time :  3519.5 secs   av.it.:  15.8
      thresh= 2.681E-07 alpha_mix =  0.700 |ddv_scf|^2 =  2.928E-14

      iter #   6 total cpu time :  3523.6 secs   av.it.:  15.6
      thresh= 1.711E-08 alpha_mix =  0.700 |ddv_scf|^2 =  1.510E-15

     End of self-consistent calculation

     Convergence has been achieved 


     Representation #   3 mode #   3

     Self-consistent Calculation

      iter #   1 total cpu time :  3526.2 secs   av.it.:   8.7
      thresh= 1.000E-02 alpha_mix =  0.700 |ddv_scf|^2 =  4.505E-07

      iter #   2 total cpu time :  3530.5 secs   av.it.:  16.6
      thresh= 6.712E-05 alpha_mix =  0.700 |ddv_scf|^2 =  3.711E-07

      iter #   3 total cpu time :  3534.5 secs   av.it.:  15.7
      thresh= 6.092E-05 alpha_mix =  0.700 |ddv_scf|^2 =  2.590E-10

      iter #   4 total cpu time :  3538.6 secs   av.it.:  16.5
      thresh= 1.609E-06 alpha_mix =  0.700 |ddv_scf|^2 =  4.684E-12

      iter #   5 total cpu time :  3542.5 secs   av.it.:  15.5
      thresh= 2.164E-07 alpha_mix =  0.700 |ddv_scf|^2 =  8.376E-14

      iter #   6 total cpu time :  3546.5 secs   av.it.:  15.7
      thresh= 2.894E-08 alpha_mix =  0.700 |ddv_scf|^2 =  2.865E-17

     End of self-consistent calculation

     Convergence has been achieved 


     Representation #   4 mode #   4

     Self-consistent Calculation

      iter #   1 total cpu time :  3549.0 secs   av.it.:   8.5
      thresh= 1.000E-02 alpha_mix =  0.700 |ddv_scf|^2 =  2.922E-07

      iter #   2 total cpu time :  3553.1 secs   av.it.:  16.5
      thresh= 5.405E-05 alpha_mix =  0.700 |ddv_scf|^2 =  1.987E-07

      iter #   3 total cpu time :  3557.2 secs   av.it.:  15.8
      thresh= 4.458E-05 alpha_mix =  0.700 |ddv_scf|^2 =  9.611E-09

      iter #   4 total cpu time :  3561.2 secs   av.it.:  15.7
      thresh= 9.804E-06 alpha_mix =  0.700 |ddv_scf|^2 =  1.158E-10

      iter #   5 total cpu time :  3565.1 secs   av.it.:  15.6
      thresh= 1.076E-06 alpha_mix =  0.700 |ddv_scf|^2 =  6.804E-13

      iter #   6 total cpu time :  3569.3 secs   av.it.:  15.7
      thresh= 8.249E-08 alpha_mix =  0.700 |ddv_scf|^2 =  2.987E-15

     End of self-consistent calculation

     Convergence has been achieved 


     Representation #   5 mode #   5

     Self-consistent Calculation

      iter #   1 total cpu time :  3571.9 secs   av.it.:   8.9
      thresh= 1.000E-02 alpha_mix =  0.700 |ddv_scf|^2 =  5.385E-07

      iter #   2 total cpu time :  3576.1 secs   av.it.:  16.7
      thresh= 7.338E-05 alpha_mix =  0.700 |ddv_scf|^2 =  7.807E-07

      iter #   3 total cpu time :  3580.1 secs   av.it.:  15.7
      thresh= 8.836E-05 alpha_mix =  0.700 |ddv_scf|^2 =  8.009E-09

      iter #   4 total cpu time :  3584.3 secs   av.it.:  15.9
      thresh= 8.949E-06 alpha_mix =  0.700 |ddv_scf|^2 =  4.330E-11

      iter #   5 total cpu time :  3588.3 secs   av.it.:  15.8
      thresh= 6.580E-07 alpha_mix =  0.700 |ddv_scf|^2 =  1.282E-12

      iter #   6 total cpu time :  3592.3 secs   av.it.:  15.6
      thresh= 1.132E-07 alpha_mix =  0.700 |ddv_scf|^2 =  1.254E-15

     End of self-consistent calculation

     Convergence has been achieved 


     Representation #   6 mode #   6

     Self-consistent Calculation

      iter #   1 total cpu time :  3594.8 secs   av.it.:   8.5
      thresh= 1.000E-02 alpha_mix =  0.700 |ddv_scf|^2 =  3.912E-07

      iter #   2 total cpu time :  3599.0 secs   av.it.:  16.5
      thresh= 6.254E-05 alpha_mix =  0.700 |ddv_scf|^2 =  1.957E-07

      iter #   3 total cpu time :  3602.9 secs   av.it.:  15.7
      thresh= 4.423E-05 alpha_mix =  0.700 |ddv_scf|^2 =  2.963E-11

      iter #   4 total cpu time :  3606.9 secs   av.it.:  15.6
      thresh= 5.443E-07 alpha_mix =  0.700 |ddv_scf|^2 =  1.062E-12

      iter #   5 total cpu time :  3610.8 secs   av.it.:  15.8
      thresh= 1.030E-07 alpha_mix =  0.700 |ddv_scf|^2 =  8.357E-15

     End of self-consistent calculation

     Convergence has been achieved 


     Representation #   7 mode #   7

     Self-consistent Calculation

      iter #   1 total cpu time :  3613.3 secs   av.it.:   8.1
      thresh= 1.000E-02 alpha_mix =  0.700 |ddv_scf|^2 =  1.453E-07

      iter #   2 total cpu time :  3617.5 secs   av.it.:  16.5
      thresh= 3.812E-05 alpha_mix =  0.700 |ddv_scf|^2 =  6.761E-08

      iter #   3 total cpu time :  3621.5 secs   av.it.:  15.7
      thresh= 2.600E-05 alpha_mix =  0.700 |ddv_scf|^2 =  5.873E-11

      iter #   4 total cpu time :  3625.6 secs   av.it.:  15.7
      thresh= 7.664E-07 alpha_mix =  0.700 |ddv_scf|^2 =  2.031E-12

      iter #   5 total cpu time :  3629.4 secs   av.it.:  14.7
      thresh= 1.425E-07 alpha_mix =  0.700 |ddv_scf|^2 =  4.823E-16

     End of self-consistent calculation

     Convergence has been achieved 


     Representation #   8 mode #   8

     Self-consistent Calculation

      iter #   1 total cpu time :  3631.9 secs   av.it.:   8.6
      thresh= 1.000E-02 alpha_mix =  0.700 |ddv_scf|^2 =  3.448E-07

      iter #   2 total cpu time :  3636.0 secs   av.it.:  16.5
      thresh= 5.872E-05 alpha_mix =  0.700 |ddv_scf|^2 =  1.399E-07

      iter #   3 total cpu time :  3640.1 secs   av.it.:  15.9
      thresh= 3.741E-05 alpha_mix =  0.700 |ddv_scf|^2 =  3.291E-11

      iter #   4 total cpu time :  3644.3 secs   av.it.:  15.8
      thresh= 5.737E-07 alpha_mix =  0.700 |ddv_scf|^2 =  2.453E-13

      iter #   5 total cpu time :  3648.2 secs   av.it.:  15.6
      thresh= 4.953E-08 alpha_mix =  0.700 |ddv_scf|^2 =  4.647E-15

     End of self-consistent calculation

     Convergence has been achieved 


     Representation #   9 mode #   9

     Self-consistent Calculation

      iter #   1 total cpu time :  3650.7 secs   av.it.:   8.1
      thresh= 1.000E-02 alpha_mix =  0.700 |ddv_scf|^2 =  8.185E-08

      iter #   2 total cpu time :  3654.9 secs   av.it.:  16.6
      thresh= 2.861E-05 alpha_mix =  0.700 |ddv_scf|^2 =  2.183E-08

      iter #   3 total cpu time :  3658.9 secs   av.it.:  15.8
      thresh= 1.478E-05 alpha_mix =  0.700 |ddv_scf|^2 =  3.483E-09

      iter #   4 total cpu time :  3662.9 secs   av.it.:  15.7
      thresh= 5.902E-06 alpha_mix =  0.700 |ddv_scf|^2 =  8.079E-12

      iter #   5 total cpu time :  3666.9 secs   av.it.:  15.9
      thresh= 2.842E-07 alpha_mix =  0.700 |ddv_scf|^2 =  1.616E-14

      iter #   6 total cpu time :  3670.9 secs   av.it.:  15.8
      thresh= 1.271E-08 alpha_mix =  0.700 |ddv_scf|^2 =  5.475E-16

     End of self-consistent calculation

     Convergence has been achieved 
 
     Number of q in the star =    2
     List of q in the star:
          1   0.333333333   0.577350269   0.000000000
          2  -0.333333333   0.577350269   0.000000000

     Diagonalizing the dynamical matrix

     q = (    0.333333333   0.577350269   0.000000000 ) 

 **************************************************************************
     freq (    1) =       5.349779 [THz] =     178.449424 [cm-1]
     freq (    2) =       5.484178 [THz] =     182.932485 [cm-1]
     freq (    3) =       7.103213 [THz] =     236.937679 [cm-1]
     freq (    4) =       9.559887 [THz] =     318.883520 [cm-1]
     freq (    5) =       9.984174 [THz] =     333.036208 [cm-1]
     freq (    6) =      10.029354 [THz] =     334.543242 [cm-1]
     freq (    7) =      11.181591 [THz] =     372.977727 [cm-1]
     freq (    8) =      11.467381 [THz] =     382.510668 [cm-1]
     freq (    9) =      11.694879 [THz] =     390.099170 [cm-1]
 **************************************************************************

     Mode symmetry, C_3h (-6)   point group:

     freq (   1-   1) =        178.4  [cm-1]   --> A''                
     freq (   2-   2) =        182.9  [cm-1]   --> E'*                
     freq (   3-   3) =        236.9  [cm-1]   --> E'                 
     freq (   4-   4) =        318.9  [cm-1]   --> E''*               
     freq (   5-   5) =        333.0  [cm-1]   --> A'                 
     freq (   6-   6) =        334.5  [cm-1]   --> E''                
     freq (   7-   7) =        373.0  [cm-1]   --> A''                
     freq (   8-   8) =        382.5  [cm-1]   --> E'                 
     freq (   9-   9) =        390.1  [cm-1]   --> E'*                
 
     init_run     :      2.76s CPU      0.76s WALL (       6 calls)
     electrons    :    440.52s CPU    113.46s WALL (       6 calls)

     Called by init_run:
     wfcinit      :      0.02s CPU      0.01s WALL (       6 calls)
     potinit      :      0.09s CPU      0.03s WALL (       6 calls)
     hinit0       :      1.18s CPU      0.34s WALL (       6 calls)

     Called by electrons:
     c_bands      :    440.49s CPU    113.45s WALL (       6 calls)
     v_of_rho     :      0.03s CPU      0.01s WALL (       7 calls)

     Called by c_bands:
     init_us_2    :     13.61s CPU      3.69s WALL (   55737 calls)
     init_us_2:cp :     13.14s CPU      3.58s WALL (   55737 calls)
     cegterg      :    382.67s CPU     98.41s WALL (    2074 calls)

     Called by *egterg:
     cdiaghg      :     18.15s CPU      4.66s WALL (   28929 calls)
     h_psi        :  11367.82s CPU   2923.18s WALL (  984752 calls)
     g_psi        :      0.80s CPU      0.21s WALL (   27740 calls)

     Called by h_psi:
     h_psi:calbec :    374.24s CPU     96.26s WALL (  984752 calls)
     vloc_psi     :  10723.60s CPU   2757.32s WALL (  984752 calls)
     add_vuspsi   :    225.49s CPU     58.34s WALL (  984752 calls)
     hs_1psi      :     47.26s CPU     12.25s WALL (   24611 calls)
     s_1psi       :      4.03s CPU      1.04s WALL (   24611 calls)

     General routines
     calbec       :    682.54s CPU    175.96s WALL ( 1966699 calls)
     fft          :      2.76s CPU      0.76s WALL (    1798 calls)
     ffts         :     11.84s CPU      3.20s WALL (    6399 calls)
     fftw         :  11546.90s CPU   2969.55s WALL (15047799 calls)
     davcio       :     48.58s CPU     14.83s WALL (  240905 calls)
 
     Parallel routines
 
     PHONON       :      3h57m CPU      1h 1m WALL

     INITIALIZATION: 
     phq_setup    :      0.18s CPU      0.06s WALL (       7 calls)
     phq_init     :      5.52s CPU      1.43s WALL (       7 calls)
 
     phq_init     :      5.52s CPU      1.43s WALL (       7 calls)
     init_vloc    :      0.49s CPU      0.16s WALL (       7 calls)
     init_us_1    :      0.71s CPU      0.18s WALL (       7 calls)
     init_us_2    :     13.61s CPU      3.69s WALL (   55737 calls)
 
     DYNAMICAL MATRIX:
     dynmat0      :      2.64s CPU      0.69s WALL (       7 calls)
     phqscf       :  12755.29s CPU   3286.12s WALL (       7 calls)
     dynmatrix    :      0.12s CPU      0.04s WALL (       7 calls)
 
     phqscf       :  12755.29s CPU   3286.12s WALL (       7 calls)
     solve_linter :  12709.04s CPU   3274.04s WALL (      60 calls)
     drhodv       :     11.74s CPU      3.07s WALL (      60 calls)
 
     dynmat0      :      2.64s CPU      0.69s WALL (       7 calls)
     dynmat_us    :      2.46s CPU      0.63s WALL (       7 calls)
     d2ionq       :      0.07s CPU      0.02s WALL (       7 calls)
 
     dynmat_us    :      2.46s CPU      0.63s WALL (       7 calls)
 
     phqscf       :  12755.29s CPU   3286.12s WALL (       7 calls)
     solve_linter :  12709.04s CPU   3274.04s WALL (      60 calls)
 
     solve_linter :  12709.04s CPU   3274.04s WALL (      60 calls)
     dvqpsi_us    :    107.70s CPU     27.92s WALL (    5859 calls)
     sth_kernel   :  12635.09s CPU   3252.92s WALL (     484 calls)
     apply_dpot_b :    578.24s CPU    149.33s WALL (   38653 calls)
     ortho        :     24.42s CPU      6.43s WALL (   44170 calls)
     cgsolve      :  12081.95s CPU   3107.53s WALL (   45766 calls)
     incdrhoscf   :    708.63s CPU    183.17s WALL (   44968 calls)
     dv_of_drho   :      2.88s CPU      0.78s WALL (     590 calls)
     mix_pot      :      6.96s CPU      2.41s WALL (     495 calls)
     psymdvscf    :     60.74s CPU     15.68s WALL (     475 calls)
 
     dvqpsi_us    :    107.70s CPU     27.92s WALL (    5859 calls)
     dvqpsi_us_on :      6.51s CPU      1.68s WALL (    5859 calls)
 
     cgsolve      :  12081.95s CPU   3107.53s WALL (   45766 calls)
     ch_psi       :  11764.47s CPU   3025.55s WALL (  929138 calls)
 
     ch_psi       :  11764.47s CPU   3025.55s WALL (  929138 calls)
     h_psi        :  11367.82s CPU   2923.18s WALL (  984752 calls)
     last         :    735.37s CPU    189.79s WALL (  929138 calls)
 
     h_psi        :  11367.82s CPU   2923.18s WALL (  984752 calls)
     add_vuspsi   :    225.49s CPU     58.34s WALL (  984752 calls)
 
     incdrhoscf   :    708.63s CPU    183.17s WALL (   44968 calls)
 
 
      General routines
     calbec       :    682.54s CPU    175.96s WALL ( 1966699 calls)
     fft          :      2.76s CPU      0.76s WALL (    1798 calls)
     ffts         :     11.84s CPU      3.20s WALL (    6399 calls)
     fftw         :  11546.90s CPU   2969.55s WALL (15047799 calls)
     davcio       :     48.58s CPU     14.83s WALL (  240905 calls)
     write_rec    :     13.75s CPU      4.85s WALL (     555 calls)
 
 
     PHONON       :      3h57m CPU      1h 1m WALL

 
   This run was terminated on:  21:44:47  15Jun2026            

=------------------------------------------------------------------------------=
   JOB DONE.
=------------------------------------------------------------------------------=
