
     Program PWSCF v.7.0 starts on 15Jun2026 at 20:43:30 

     This program is part of the open-source Quantum ESPRESSO suite
     for quantum simulation of materials; please cite
         "P. Giannozzi et al., J. Phys.:Condens. Matter 21 395502 (2009);
         "P. Giannozzi et al., J. Phys.:Condens. Matter 29 465901 (2017);
         "P. Giannozzi et al., J. Chem. Phys. 152 154105 (2020);
          URL http://www.quantum-espresso.org", 
     in publications or presentations arising from this work. More details at
     http://www.quantum-espresso.org/quote

     Parallel version (MPI & OpenMP), running on      64 processor cores
     Number of MPI processes:                64
     Threads/MPI process:                     1

     MPI processes distributed on     1 nodes
     R & G space division:  proc/nbgrp/npool/nimage =      64
     228669 MiB available memory on the printing compute node when the environment starts
 
     Waiting for input...
     Reading input from standard input

     Current dimensions of program PWSCF are:
     Max number of different atomic species (ntypx) = 10
     Max number of k-points (npk) =  40000
     Max angular momentum in pseudopotentials (lmaxx) =  4

     Subspace diagonalization in iterative solution of the eigenvalue problem:
     a serial algorithm will be used

 
     Parallelization info
     --------------------
     sticks:   dense  smooth     PW     G-vecs:    dense   smooth      PW
     Min          12      12      3                 1720     1720     261
     Max          13      13      4                 1748     1748     296
     Sum         769     769    223               111239   111239   17391
 
     Using Slab Decomposition
 


     bravais-lattice index     =            4
     lattice parameter (alat)  =       5.9296  a.u.
     unit-cell volume          =    1150.8250 (a.u.)^3
     number of atoms/cell      =            3
     number of atomic types    =            2
     number of electrons       =        18.00
     number of Kohn-Sham states=            9
     kinetic-energy cutoff     =      80.0000  Ry
     charge density cutoff     =     320.0000  Ry
     scf convergence threshold =      1.0E-06
     mixing beta               =       0.7000
     number of iterations used =            8  plain     mixing
     Exchange-correlation= SLA-PZ-NOGX-NOGC
                           (   1   1   0   0   0   0   0)

     celldm(1)=   5.929593  celldm(2)=   0.000000  celldm(3)=   6.373881
     celldm(4)=   0.000000  celldm(5)=   0.000000  celldm(6)=   0.000000

     crystal axes: (cart. coord. in units of alat)
               a(1) = (   1.000000   0.000000   0.000000 )  
               a(2) = (  -0.500000   0.866025   0.000000 )  
               a(3) = (   0.000000   0.000000   6.373881 )  

     reciprocal axes: (cart. coord. in units 2 pi/alat)
               b(1) = (  1.000000  0.577350  0.000000 )  
               b(2) = (  0.000000  1.154701  0.000000 )  
               b(3) = (  0.000000  0.000000  0.156890 )  


     PseudoPot. # 1 for Mo read from file:
     /public3/home/a2s002871/MoS2/pseudo/Mo.pz-hgh.UPF
     MD5 check sum: ddacfae2313397baf1b67b06fa6affd0
     Pseudo is Norm-conserving, Zval =  6.0
     Generated in analytical, separable form
     Using radial grid of 1229 points,  6 beta functions with: 
                l(1) =   0
                l(2) =   0
                l(3) =   1
                l(4) =   1
                l(5) =   2
                l(6) =   2

     PseudoPot. # 2 for S  read from file:
     /public3/home/a2s002871/MoS2/pseudo/S.pz-hgh.UPF
     MD5 check sum: 38f9f902ee430b58f9df3cf2bf519617
     Pseudo is Norm-conserving, Zval =  6.0
     Generated in analytical, separable form
     Using radial grid of 1151 points,  3 beta functions with: 
                l(1) =   0
                l(2) =   0
                l(3) =   1

     atomic species   valence    mass     pseudopotential
        Mo             6.00    95.94000     Mo( 1.00)
        S              6.00    32.06500     S ( 1.00)

     12 Sym. Ops. (no inversion) found



   Cartesian axes

     site n.     atom                  positions (alat units)
         1           Mo  tau(   1) = (   0.0000000   0.0000000   3.1869406  )
         2           S   tau(   2) = (  -0.0000000   0.5773503   2.6888676  )
         3           S   tau(   3) = (  -0.0000000   0.5773503   3.6850130  )

     number of k points=    19
                       cart. coord. in units 2pi/alat
        k(    1) = (   0.0000000   0.0000000   0.0000000), wk =   0.0138889
        k(    2) = (   0.0000000   0.0962250   0.0000000), wk =   0.0833333
        k(    3) = (   0.0000000   0.1924501   0.0000000), wk =   0.0833333
        k(    4) = (   0.0000000   0.2886751   0.0000000), wk =   0.0833333
        k(    5) = (   0.0000000   0.3849002   0.0000000), wk =   0.0833333
        k(    6) = (   0.0000000   0.4811252   0.0000000), wk =   0.0833333
        k(    7) = (   0.0000000  -0.5773503   0.0000000), wk =   0.0416667
        k(    8) = (   0.0833333   0.1443376   0.0000000), wk =   0.0833333
        k(    9) = (   0.0833333   0.2405626   0.0000000), wk =   0.1666667
        k(   10) = (   0.0833333   0.3367877   0.0000000), wk =   0.1666667
        k(   11) = (   0.0833333   0.4330127   0.0000000), wk =   0.1666667
        k(   12) = (   0.0833333   0.5292377   0.0000000), wk =   0.1666667
        k(   13) = (   0.1666667   0.2886751   0.0000000), wk =   0.0833333
        k(   14) = (   0.1666667   0.3849002   0.0000000), wk =   0.1666667
        k(   15) = (   0.1666667   0.4811252   0.0000000), wk =   0.1666667
        k(   16) = (   0.1666667   0.5773503   0.0000000), wk =   0.0833333
        k(   17) = (   0.2500000   0.4330127   0.0000000), wk =   0.0833333
        k(   18) = (   0.2500000   0.5292377   0.0000000), wk =   0.1666667
        k(   19) = (   0.3333333   0.5773503   0.0000000), wk =   0.0277778

     Dense  grid:   111239 G-vectors     FFT dimensions: (  36,  36, 216)

     Estimated max dynamical RAM per process >       4.89 MB

     Estimated total dynamical RAM >     312.95 MB
 ----2D----2D----2D----2D----2D----2D----2D----2D----2D----2D----2D----2D
  The code is running with the 2D cutoff
  Please refer to:
  Sohier, T., Calandra, M., & Mauri, F. (2017), 
  Density functional perturbation theory for gated two-dimensional heterostructu
 res:
  Theoretical developments and application to flexural phonons in graphene.
  Physical Review B, 96(7), 75448. https://doi.org/10.1103/PhysRevB.96.075448
 ----2D----2D----2D----2D----2D----2D----2D----2D----2D----2D----2D----2D

     Initial potential from superposition of free atoms

     starting charge      15.9993, renormalised to      18.0000

     negative rho (up, down):  2.410E-06 0.000E+00
     Starting wfcs are   27 randomized atomic wfcs

     total cpu time spent up to now is        0.8 secs

     Self-consistent Calculation

     iteration #  1     ecut=    80.00 Ry     beta= 0.70
     Davidson diagonalization with overlap
     ethr =  1.00E-02,  avg # of iterations =  2.0

     total cpu time spent up to now is        1.0 secs

     total energy              =     -56.47611573 Ry
     estimated scf accuracy    <       1.19583694 Ry

     iteration #  2     ecut=    80.00 Ry     beta= 0.70
     Davidson diagonalization with overlap
     ethr =  6.64E-03,  avg # of iterations =  7.5

     total cpu time spent up to now is        1.3 secs

     total energy              =     -56.27793294 Ry
     estimated scf accuracy    <       8.70820937 Ry

     iteration #  3     ecut=    80.00 Ry     beta= 0.70
     Davidson diagonalization with overlap
     ethr =  6.64E-03,  avg # of iterations =  4.4

     total cpu time spent up to now is        1.6 secs

     total energy              =     -57.04844013 Ry
     estimated scf accuracy    <       0.38255658 Ry

     iteration #  4     ecut=    80.00 Ry     beta= 0.70
     Davidson diagonalization with overlap
     ethr =  2.13E-03,  avg # of iterations =  5.4

     total cpu time spent up to now is        1.8 secs

     total energy              =     -57.22381083 Ry
     estimated scf accuracy    <       0.23066459 Ry

     iteration #  5     ecut=    80.00 Ry     beta= 0.70
     Davidson diagonalization with overlap
     ethr =  1.28E-03,  avg # of iterations =  2.1

     total cpu time spent up to now is        2.0 secs

     total energy              =     -57.22003992 Ry
     estimated scf accuracy    <       0.05396891 Ry

     iteration #  6     ecut=    80.00 Ry     beta= 0.70
     Davidson diagonalization with overlap
     ethr =  3.00E-04,  avg # of iterations =  5.9

     total cpu time spent up to now is        2.3 secs

     total energy              =     -57.25513596 Ry
     estimated scf accuracy    <       0.06851174 Ry

     iteration #  7     ecut=    80.00 Ry     beta= 0.70
     Davidson diagonalization with overlap
     ethr =  3.00E-04,  avg # of iterations =  1.0

     total cpu time spent up to now is        2.4 secs

     total energy              =     -57.23470165 Ry
     estimated scf accuracy    <       0.04665569 Ry

     iteration #  8     ecut=    80.00 Ry     beta= 0.70
     Davidson diagonalization with overlap
     ethr =  2.59E-04,  avg # of iterations =  4.4

     total cpu time spent up to now is        2.6 secs

     total energy              =     -57.25229125 Ry
     estimated scf accuracy    <       0.01194131 Ry

     iteration #  9     ecut=    80.00 Ry     beta= 0.70
     Davidson diagonalization with overlap
     ethr =  6.63E-05,  avg # of iterations =  1.7

     negative rho (up, down):  4.877E-06 0.000E+00

     total cpu time spent up to now is        2.8 secs

     total energy              =     -57.25107868 Ry
     estimated scf accuracy    <       0.01058992 Ry

     iteration # 10     ecut=    80.00 Ry     beta= 0.70
     Davidson diagonalization with overlap
     ethr =  5.88E-05,  avg # of iterations =  1.5

     negative rho (up, down):  1.780E-05 0.000E+00

     total cpu time spent up to now is        2.9 secs

     total energy              =     -57.25037497 Ry
     estimated scf accuracy    <       0.00552516 Ry

     iteration # 11     ecut=    80.00 Ry     beta= 0.70
     Davidson diagonalization with overlap
     ethr =  3.07E-05,  avg # of iterations =  2.7

     negative rho (up, down):  1.175E-05 0.000E+00

     total cpu time spent up to now is        3.1 secs

     total energy              =     -57.25057549 Ry
     estimated scf accuracy    <       0.00130626 Ry

     iteration # 12     ecut=    80.00 Ry     beta= 0.70
     Davidson diagonalization with overlap
     ethr =  7.26E-06,  avg # of iterations =  4.8

     negative rho (up, down):  2.645E-06 0.000E+00

     total cpu time spent up to now is        3.4 secs

     total energy              =     -57.25119453 Ry
     estimated scf accuracy    <       0.00019480 Ry

     iteration # 13     ecut=    80.00 Ry     beta= 0.70
     Davidson diagonalization with overlap
     ethr =  1.08E-06,  avg # of iterations =  3.8

     negative rho (up, down):  1.023E-05 0.000E+00

     total cpu time spent up to now is        3.6 secs

     total energy              =     -57.25124188 Ry
     estimated scf accuracy    <       0.00020636 Ry

     iteration # 14     ecut=    80.00 Ry     beta= 0.70
     Davidson diagonalization with overlap
     ethr =  1.08E-06,  avg # of iterations =  1.0

     negative rho (up, down):  3.004E-08 0.000E+00

     total cpu time spent up to now is        3.7 secs

     total energy              =     -57.25123264 Ry
     estimated scf accuracy    <       0.00020271 Ry

     iteration # 15     ecut=    80.00 Ry     beta= 0.70
     Davidson diagonalization with overlap
     ethr =  1.08E-06,  avg # of iterations =  1.0

     total cpu time spent up to now is        3.9 secs

     total energy              =     -57.25123353 Ry
     estimated scf accuracy    <       0.00016623 Ry

     iteration # 16     ecut=    80.00 Ry     beta= 0.70
     Davidson diagonalization with overlap
     ethr =  9.24E-07,  avg # of iterations =  1.0

     total cpu time spent up to now is        4.0 secs

     total energy              =     -57.25123432 Ry
     estimated scf accuracy    <       0.00015781 Ry

     iteration # 17     ecut=    80.00 Ry     beta= 0.70
     Davidson diagonalization with overlap
     ethr =  8.77E-07,  avg # of iterations =  1.0

     total cpu time spent up to now is        4.2 secs

     total energy              =     -57.25121138 Ry
     estimated scf accuracy    <       0.00014715 Ry

     iteration # 18     ecut=    80.00 Ry     beta= 0.70
     Davidson diagonalization with overlap
     ethr =  8.17E-07,  avg # of iterations =  1.3

     total cpu time spent up to now is        4.3 secs

     total energy              =     -57.25120443 Ry
     estimated scf accuracy    <       0.00005835 Ry

     iteration # 19     ecut=    80.00 Ry     beta= 0.70
     Davidson diagonalization with overlap
     ethr =  3.24E-07,  avg # of iterations =  4.0

     total cpu time spent up to now is        4.6 secs

     End of self-consistent calculation

          k = 0.0000 0.0000 0.0000 ( 13997 PWs)   bands (ev):

   -20.4138 -19.1293 -11.9201  -8.7760  -8.7760  -7.9924  -7.5722  -7.5722
    -6.2885

          k = 0.0000 0.0962 0.0000 ( 13995 PWs)   bands (ev):

   -20.3078 -19.0755 -11.7980  -9.0083  -8.6582  -8.4456  -7.7458  -7.2823
    -6.3266

          k = 0.0000 0.1925 0.0000 ( 13961 PWs)   bands (ev):

   -20.0041 -18.9219 -11.4907  -9.5457  -9.1057  -8.3291  -8.1546  -7.2053
    -6.5298

          k = 0.0000 0.2887 0.0000 ( 13951 PWs)   bands (ev):

   -19.5485 -18.6941 -11.2697 -10.0094  -9.7969  -8.6129  -7.8657  -7.4746
    -6.9519

          k = 0.0000 0.3849 0.0000 ( 13876 PWs)   bands (ev):

   -19.0281 -18.4400 -11.5308 -10.4541 -10.1166  -8.9986  -7.7972  -7.4006
    -7.2036

          k = 0.0000 0.4811 0.0000 ( 13840 PWs)   bands (ev):

   -18.5861 -18.2322 -11.9412 -10.9462 -10.2373  -9.2492  -8.0008  -7.0788
    -7.0130

          k = 0.0000-0.5774 0.0000 ( 13882 PWs)   bands (ev):

   -18.4060 -18.1505 -12.1202 -11.1309 -10.3245  -9.3355  -8.0660  -6.9701
    -6.8335

          k = 0.0833 0.1443 0.0000 ( 13971 PWs)   bands (ev):

   -20.1028 -18.9716 -11.5797  -9.3857  -8.8826  -8.4435  -8.1501  -7.0902
    -6.4470

          k = 0.0833 0.2406 0.0000 ( 13941 PWs)   bands (ev):

   -19.7221 -18.7798 -11.2843  -9.8682  -9.4439  -8.7340  -8.1023  -7.1280
    -6.7687

          k = 0.0833 0.3368 0.0000 ( 13920 PWs)   bands (ev):

   -19.2301 -18.5351 -11.3149 -10.1319 -10.0526  -9.1249  -7.8580  -7.4458
    -7.0358

          k = 0.0833 0.4330 0.0000 ( 13895 PWs)   bands (ev):

   -18.7393 -18.2972 -11.6854 -10.7711 -10.1068  -9.3045  -7.8009  -7.7548
    -6.8782

          k = 0.0833 0.5292 0.0000 ( 13863 PWs)   bands (ev):

   -18.4162 -18.1455 -11.9748 -11.1497 -10.2579  -9.3642  -8.0197  -7.6021
    -6.6274

          k = 0.1667 0.2887 0.0000 ( 13925 PWs)   bands (ev):

   -19.3021 -18.5682 -11.2117 -10.0001  -9.8719  -9.4000  -8.0987  -7.1708
    -6.9674

          k = 0.1667 0.3849 0.0000 ( 13913 PWs)   bands (ev):

   -18.8291 -18.3309 -11.4195 -10.6105  -9.8989  -9.5244  -8.4235  -7.4957
    -6.8786

          k = 0.1667 0.4811 0.0000 ( 13884 PWs)   bands (ev):

   -18.4363 -18.1356 -11.6373 -11.1825 -10.0466  -9.4450  -8.5319  -7.8873
    -6.6181

          k = 0.1667 0.5774 0.0000 ( 13868 PWs)   bands (ev):

   -18.2794 -18.0583 -11.7188 -11.3921 -10.1939  -9.3733  -8.5124  -8.0739
    -6.4367

          k = 0.2500 0.4330 0.0000 ( 13906 PWs)   bands (ev):

   -18.4461 -18.1306 -11.4363 -11.1966  -9.7628  -9.4938  -9.1564  -7.8034
    -6.6437

          k = 0.2500 0.5292 0.0000 ( 13882 PWs)   bands (ev):

   -18.2065 -18.0020 -11.5647 -11.3106 -10.0567  -9.4120  -9.3068  -8.1463
    -6.3259

          k = 0.3333 0.5774 0.0000 ( 13902 PWs)   bands (ev):

   -18.1211 -17.9492 -11.7169 -10.8922 -10.3767  -9.7291  -9.1665  -8.3266
    -6.1316

     highest occupied level (ev):    -6.1316

!    total energy              =     -57.25121853 Ry
     estimated scf accuracy    <       0.00000042 Ry

     The total energy is the sum of the following terms:
     one-electron contribution =    -845.86654831 Ry
     hartree contribution      =     424.11230247 Ry
     xc contribution           =     -13.16626347 Ry
     ewald contribution        =     377.66929078 Ry

     convergence has been achieved in  19 iterations

     Writing all to output data dir ./tmp/mos2.save/
 
     init_run     :      0.20s CPU      0.37s WALL (       1 calls)
     electrons    :      3.61s CPU      3.83s WALL (       1 calls)

     Called by init_run:
     wfcinit      :      0.16s CPU      0.22s WALL (       1 calls)
     potinit      :      0.01s CPU      0.02s WALL (       1 calls)
     hinit0       :      0.01s CPU      0.06s WALL (       1 calls)

     Called by electrons:
     c_bands      :      3.07s CPU      3.22s WALL (      19 calls)
     sum_band     :      0.49s CPU      0.51s WALL (      19 calls)
     v_of_rho     :      0.01s CPU      0.02s WALL (      20 calls)
     mix_rho      :      0.02s CPU      0.03s WALL (      19 calls)

     Called by c_bands:
     init_us_2    :      0.04s CPU      0.04s WALL (     741 calls)
     init_us_2:cp :      0.04s CPU      0.04s WALL (     741 calls)
     cegterg      :      2.92s CPU      3.01s WALL (     361 calls)

     Called by *egterg:
     cdiaghg      :      0.14s CPU      0.18s WALL (    1433 calls)
     h_psi        :      2.68s CPU      2.77s WALL (    1452 calls)
     g_psi        :      0.01s CPU      0.01s WALL (    1072 calls)

     Called by h_psi:
     h_psi:calbec :      0.11s CPU      0.13s WALL (    1452 calls)
     vloc_psi     :      2.52s CPU      2.59s WALL (    1452 calls)
     add_vuspsi   :      0.04s CPU      0.04s WALL (    1452 calls)

     General routines
     calbec       :      0.11s CPU      0.12s WALL (    1452 calls)
     fft          :      0.01s CPU      0.05s WALL (      59 calls)
     ffts         :      0.01s CPU      0.01s WALL (      19 calls)
     fftw         :      2.86s CPU      2.94s WALL (   22333 calls)
 
     Parallel routines
 
     PWSCF        :      4.01s CPU      4.96s WALL

 
   This run was terminated on:  20:43:35  15Jun2026            

=------------------------------------------------------------------------------=
   JOB DONE.
=------------------------------------------------------------------------------=
