
     Program BANDS v.6.7MaX starts on 12Jun2026 at 22:29: 7 

     This program is part of the open-source Quantum ESPRESSO suite
     for quantum simulation of materials; please cite
         "P. Giannozzi et al., J. Phys.:Condens. Matter 21 395502 (2009);
         "P. Giannozzi et al., J. Phys.:Condens. Matter 29 465901 (2017);
          URL http://www.quantum-espresso.org", 
     in publications or presentations arising from this work. More details at
     http://www.quantum-espresso.org/quote

     Parallel version (MPI), running on    32 processors

     MPI processes distributed on     1 nodes
     R & G space division:  proc/nbgrp/npool/nimage =      32

     Reading xml data from directory:

     ./tmp/mos2.save/

     IMPORTANT: XC functional enforced from input :
     Exchange-correlation= PZ
                           (   1   1   0   0   0   0   0)
     Any further DFT definition will be discarded
     Please, verify this is what you really want

 
     Parallelization info
     --------------------
     sticks:   dense  smooth     PW     G-vecs:    dense   smooth      PW
     Min          24      24      6                 3466     3466     522
     Max          25      25      7                 3491     3491     559
     Sum         769     769    223               111239   111239   17391
 
     Reading collected, re-writing distributed wavefunctions
     high-symmetry point:  0.0000 0.0000 0.0000   x coordinate   0.0000
     high-symmetry point:  0.6667-0.0000 0.0000   x coordinate   0.6667
     high-symmetry point:  0.5000 0.2887 0.0000   x coordinate   1.0000
     high-symmetry point:  0.0000 0.0000 0.0000   x coordinate   1.5774

     Plottable bands (eV) written to file mos2.bands.gnu
     Bands written to file mos2.bands

 **************************************************************************

                    xk=(   0.00000,   0.00000,   0.00000  )

     point group C_1 (1)    
     there are  1 classes
     the character table:

       E    
A      1.00

     the symmetry operations in each class and the name of the first element:

     E        1
                                                                 

     Band symmetry, C_1 (1)     point group:

     e(  1 -  1) =    -15.94471  eV     1   --> A              
     e(  2 -  2) =    -14.65974  eV     1   --> A              
     e(  3 -  3) =     -7.45192  eV     1   --> A              
     e(  4 -  5) =     -4.30991  eV     2   -->   2 A              
     e(  6 -  6) =     -3.52270  eV     1   --> A              
     e(  7 -  8) =     -3.10638  eV     2   -->   2 A              
     e(  9 -  9) =     -1.82350  eV     1   --> A              
     e( 10 - 11) =      1.33919  eV     2   -->   2 A              
     e( 12 - 13) =      1.53429  eV     2   -->   2 A              
     e( 14 - 14) =      3.88798  eV     1   --> A              
     e( 15 - 15) =      4.12483  eV     1   --> A              
     e( 16 - 16) =      4.79262  eV     1   --> A              
     e( 17 - 17) =      5.34035  eV     1   --> A              
     e( 18 - 18) =      5.93536  eV     1   --> A              
     e( 19 - 19) =      7.07373  eV     1   --> A              
     e( 20 - 20) =      7.46346  eV     1   --> A              
     e( 21 - 21) =      8.71068  eV     1   --> A              
     e( 22 - 23) =      9.33105  eV     2   -->   2 A              
     e( 24 - 24) =      9.97542  eV     1   --> A              
     e( 25 - 26) =     11.52657  eV     2   -->   2 A              
     e( 27 - 27) =     11.58051  eV     1   --> A              
     e( 28 - 28) =     12.47592  eV     1   --> A              
     e( 29 - 29) =     13.90170  eV     1   --> A              
     e( 30 - 31) =     15.09971  eV     2   -->   2 A              
     e( 32 - 33) =     15.12031  eV     2   -->   2 A              
     e( 34 - 34) =     15.18537  eV     1   --> A              
     e( 35 - 35) =     16.86576  eV     1   --> A              
     e( 36 - 36) =     17.02115  eV     1   --> A              
     e( 37 - 37) =     17.69653  eV     1   --> A              
     e( 38 - 38) =     18.95969  eV     1   --> A              
     e( 39 - 40) =     21.10222  eV     2   -->   2 A              

 **************************************************************************

 **************************************************************************

                    xk=(   0.01667,   0.00000,   0.00000  )

     Band symmetry, C_1 (1)     point group:

     e(  1 -  1) =    -15.94149  eV     1   --> A              
     e(  2 -  2) =    -14.65812  eV     1   --> A              
     e(  3 -  3) =     -7.44814  eV     1   --> A              
     e(  4 -  4) =     -4.31734  eV     1   --> A              
     e(  5 -  5) =     -4.30632  eV     1   --> A              
     e(  6 -  6) =     -3.54732  eV     1   --> A              
     e(  7 -  7) =     -3.11197  eV     1   --> A              
     e(  8 -  8) =     -3.08627  eV     1   --> A              
     e(  9 -  9) =     -1.82440  eV     1   --> A              
     e( 10 - 10) =      1.33263  eV     1   --> A              
     e( 11 - 11) =      1.34513  eV     1   --> A              
     e( 12 - 12) =      1.52261  eV     1   --> A              
     e( 13 - 13) =      1.53035  eV     1   --> A              
     e( 14 - 14) =      3.89473  eV     1   --> A              
     e( 15 - 15) =      4.12911  eV     1   --> A              
     e( 16 - 16) =      4.79992  eV     1   --> A              
     e( 17 - 17) =      5.35228  eV     1   --> A              
     e( 18 - 18) =      5.93943  eV     1   --> A              
     e( 19 - 19) =      7.07798  eV     1   --> A              
     e( 20 - 20) =      7.47998  eV     1   --> A              
     e( 21 - 21) =      8.71425  eV     1   --> A              
     e( 22 - 22) =      9.31388  eV     1   --> A              
     e( 23 - 23) =      9.34131  eV     1   --> A              
     e( 24 - 24) =      9.98677  eV     1   --> A              
     e( 25 - 25) =     11.49650  eV     1   --> A              
     e( 26 - 26) =     11.52770  eV     1   --> A              
     e( 27 - 27) =     11.58121  eV     1   --> A              
     e( 28 - 28) =     12.47991  eV     1   --> A              
     e( 29 - 29) =     13.90018  eV     1   --> A              
     e( 30 - 30) =     15.07490  eV     1   --> A              
     e( 31 - 31) =     15.08709  eV     1   --> A              
     e( 32 - 32) =     15.09822  eV     1   --> A              
     e( 33 - 33) =     15.12520  eV     1   --> A              
     e( 34 - 34) =     15.22585  eV     1   --> A              
     e( 35 - 35) =     16.87773  eV     1   --> A              
     e( 36 - 36) =     17.03529  eV     1   --> A              
     e( 37 - 37) =     17.73868  eV     1   --> A              
     e( 38 - 38) =     18.96109  eV     1   --> A              
     e( 39 - 39) =     21.08363  eV     1   --> A              
     e( 40 - 40) =     21.11464  eV     1   --> A              

 **************************************************************************

 **************************************************************************

                    xk=(   0.03333,   0.00000,   0.00000  )

     Band symmetry, C_1 (1)     point group:

     e(  1 -  1) =    -15.93186  eV     1   --> A              
     e(  2 -  2) =    -14.65323  eV     1   --> A              
     e(  3 -  3) =     -7.43684  eV     1   --> A              
     e(  4 -  4) =     -4.33944  eV     1   --> A              
     e(  5 -  5) =     -4.29558  eV     1   --> A              
     e(  6 -  6) =     -3.61033  eV     1   --> A              
     e(  7 -  7) =     -3.12879  eV     1   --> A              
     e(  8 -  8) =     -3.03674  eV     1   --> A              
     e(  9 -  9) =     -1.82716  eV     1   --> A              
     e( 10 - 10) =      1.31353  eV     1   --> A              
     e( 11 - 11) =      1.36288  eV     1   --> A              
     e( 12 - 12) =      1.48846  eV     1   --> A              
     e( 13 - 13) =      1.51860  eV     1   --> A              
     e( 14 - 14) =      3.91448  eV     1   --> A              
     e( 15 - 15) =      4.14191  eV     1   --> A              
     e( 16 - 16) =      4.82125  eV     1   --> A              
     e( 17 - 17) =      5.38831  eV     1   --> A              
     e( 18 - 18) =      5.95163  eV     1   --> A              
     e( 19 - 19) =      7.09073  eV     1   --> A              
     e( 20 - 20) =      7.52895  eV     1   --> A              
     e( 21 - 21) =      8.72493  eV     1   --> A              
     e( 22 - 22) =      9.26600  eV     1   --> A              
     e( 23 - 23) =      9.37184  eV     1   --> A              
     e( 24 - 24) =     10.01785  eV     1   --> A              
     e( 25 - 25) =     11.41057  eV     1   --> A              
     e( 26 - 26) =     11.53098  eV     1   --> A              
     e( 27 - 27) =     11.58255  eV     1   --> A              
     e( 28 - 28) =     12.49131  eV     1   --> A              
     e( 29 - 29) =     13.89549  eV     1   --> A              
     e( 30 - 30) =     14.95955  eV     1   --> A              
     e( 31 - 31) =     15.04887  eV     1   --> A              
     e( 32 - 32) =     15.09499  eV     1   --> A              
     e( 33 - 33) =     15.13654  eV     1   --> A              
     e( 34 - 34) =     15.33618  eV     1   --> A              
     e( 35 - 35) =     16.91353  eV     1   --> A              
     e( 36 - 36) =     17.07077  eV     1   --> A              
     e( 37 - 37) =     17.86208  eV     1   --> A              
     e( 38 - 38) =     18.96532  eV     1   --> A              
     e( 39 - 39) =     21.03227  eV     1   --> A              
     e( 40 - 40) =     21.15067  eV     1   --> A              

 **************************************************************************

 **************************************************************************

                    xk=(   0.05000,   0.00000,   0.00000  )

     Band symmetry, C_1 (1)     point group:

     e(  1 -  1) =    -15.91584  eV     1   --> A              
     e(  2 -  2) =    -14.64510  eV     1   --> A              
     e(  3 -  3) =     -7.41816  eV     1   --> A              
     e(  4 -  4) =     -4.37567  eV     1   --> A              
     e(  5 -  5) =     -4.27776  eV     1   --> A              
     e(  6 -  6) =     -3.69483  eV     1   --> A              
     e(  7 -  7) =     -3.15697  eV     1   --> A              
     e(  8 -  8) =     -2.97449  eV     1   --> A              
     e(  9 -  9) =     -1.83209  eV     1   --> A              
     e( 10 - 10) =      1.28343  eV     1   --> A              
     e( 11 - 11) =      1.39217  eV     1   --> A              
     e( 12 - 12) =      1.43429  eV     1   --> A              
     e( 13 - 13) =      1.49917  eV     1   --> A              
     e( 14 - 14) =      3.94592  eV     1   --> A              
     e( 15 - 15) =      4.16318  eV     1   --> A              
     e( 16 - 16) =      4.85498  eV     1   --> A              
     e( 17 - 17) =      5.44902  eV     1   --> A              
     e( 18 - 18) =      5.97190  eV     1   --> A              
     e( 19 - 19) =      7.11190  eV     1   --> A              
     e( 20 - 20) =      7.60854  eV     1   --> A              
     e( 21 - 21) =      8.74259  eV     1   --> A              
     e( 22 - 22) =      9.19524  eV     1   --> A              
     e( 23 - 23) =      9.42177  eV     1   --> A              
     e( 24 - 24) =     10.06262  eV     1   --> A              
     e( 25 - 25) =     11.27940  eV     1   --> A              
     e( 26 - 26) =     11.53601  eV     1   --> A              
     e( 27 - 27) =     11.58246  eV     1   --> A              
     e( 28 - 28) =     12.50890  eV     1   --> A              
     e( 29 - 29) =     13.88733  eV     1   --> A              
     e( 30 - 30) =     14.79680  eV     1   --> A              
     e( 31 - 31) =     14.98417  eV     1   --> A              
     e( 32 - 32) =     15.09340  eV     1   --> A              
     e( 33 - 33) =     15.15302  eV     1   --> A              
     e( 34 - 34) =     15.50790  eV     1   --> A              
     e( 35 - 35) =     16.97287  eV     1   --> A              
     e( 36 - 36) =     17.11656  eV     1   --> A              
     e( 37 - 37) =     18.05578  eV     1   --> A              
     e( 38 - 38) =     18.97242  eV     1   --> A              
     e( 39 - 39) =     20.95768  eV     1   --> A              
     e( 40 - 40) =     21.20627  eV     1   --> A              

 **************************************************************************

 **************************************************************************

                    xk=(   0.06667,   0.00000,   0.00000  )

     Band symmetry, C_1 (1)     point group:

     e(  1 -  1) =    -15.89351  eV     1   --> A              
     e(  2 -  2) =    -14.63377  eV     1   --> A              
     e(  3 -  3) =     -7.39229  eV     1   --> A              
     e(  4 -  4) =     -4.42510  eV     1   --> A              
     e(  5 -  5) =     -4.25300  eV     1   --> A              
     e(  6 -  6) =     -3.79055  eV     1   --> A              
     e(  7 -  7) =     -3.19673  eV     1   --> A              
     e(  8 -  8) =     -2.90953  eV     1   --> A              
     e(  9 -  9) =     -1.83963  eV     1   --> A              
     e( 10 - 10) =      1.24472  eV     1   --> A              
     e( 11 - 11) =      1.36362  eV     1   --> A              
     e( 12 - 12) =      1.43256  eV     1   --> A              
     e( 13 - 13) =      1.47233  eV     1   --> A              
     e( 14 - 14) =      3.98738  eV     1   --> A              
     e( 15 - 15) =      4.19281  eV     1   --> A              
     e( 16 - 16) =      4.89903  eV     1   --> A              
     e( 17 - 17) =      5.53477  eV     1   --> A              
     e( 18 - 18) =      6.00019  eV     1   --> A              
     e( 19 - 19) =      7.14143  eV     1   --> A              
     e( 20 - 20) =      7.71593  eV     1   --> A              
     e( 21 - 21) =      8.76697  eV     1   --> A              
     e( 22 - 22) =      9.10937  eV     1   --> A              
     e( 23 - 23) =      9.48967  eV     1   --> A              
     e( 24 - 24) =     10.11603  eV     1   --> A              
     e( 25 - 25) =     11.11577  eV     1   --> A              
     e( 26 - 26) =     11.54212  eV     1   --> A              
     e( 27 - 27) =     11.57815  eV     1   --> A              
     e( 28 - 28) =     12.53157  eV     1   --> A              
     e( 29 - 29) =     13.87528  eV     1   --> A              
     e( 30 - 30) =     14.60856  eV     1   --> A              
     e( 31 - 31) =     14.89246  eV     1   --> A              
     e( 32 - 32) =     15.09763  eV     1   --> A              
     e( 33 - 33) =     15.17490  eV     1   --> A              
     e( 34 - 34) =     15.72886  eV     1   --> A              
     e( 35 - 35) =     17.05509  eV     1   --> A              
     e( 36 - 36) =     17.16847  eV     1   --> A              
     e( 37 - 37) =     18.30287  eV     1   --> A              
     e( 38 - 38) =     18.98219  eV     1   --> A              
     e( 39 - 39) =     20.86808  eV     1   --> A              
     e( 40 - 40) =     21.27260  eV     1   --> A              

 **************************************************************************

 **************************************************************************

                    xk=(   0.08333,  -0.00000,   0.00000  )

     Band symmetry, C_1 (1)     point group:

     e(  1 -  1) =    -15.86494  eV     1   --> A              
     e(  2 -  2) =    -14.61928  eV     1   --> A              
     e(  3 -  3) =     -7.35956  eV     1   --> A              
     e(  4 -  4) =     -4.48659  eV     1   --> A              
     e(  5 -  5) =     -4.22152  eV     1   --> A              
     e(  6 -  6) =     -3.89222  eV     1   --> A              
     e(  7 -  7) =     -3.24830  eV     1   --> A              
     e(  8 -  8) =     -2.84674  eV     1   --> A              
     e(  9 -  9) =     -1.85044  eV     1   --> A              
     e( 10 - 10) =      1.20021  eV     1   --> A              
     e( 11 - 11) =      1.28047  eV     1   --> A              
     e( 12 - 12) =      1.43845  eV     1   --> A              
     e( 13 - 13) =      1.48341  eV     1   --> A              
     e( 14 - 14) =      4.03731  eV     1   --> A              
     e( 15 - 15) =      4.23068  eV     1   --> A              
     e( 16 - 16) =      4.95141  eV     1   --> A              
     e( 17 - 17) =      5.64519  eV     1   --> A              
     e( 18 - 18) =      6.03639  eV     1   --> A              
     e( 19 - 19) =      7.17925  eV     1   --> A              
     e( 20 - 20) =      7.84735  eV     1   --> A              
     e( 21 - 21) =      8.79769  eV     1   --> A              
     e( 22 - 22) =      9.01437  eV     1   --> A              
     e( 23 - 23) =      9.57339  eV     1   --> A              
     e( 24 - 24) =     10.17522  eV     1   --> A              
     e( 25 - 25) =     10.93165  eV     1   --> A              
     e( 26 - 26) =     11.54815  eV     1   --> A              
     e( 27 - 27) =     11.56681  eV     1   --> A              
     e( 28 - 28) =     12.55847  eV     1   --> A              
     e( 29 - 29) =     13.85884  eV     1   --> A              
     e( 30 - 30) =     14.41260  eV     1   --> A              
     e( 31 - 31) =     14.77427  eV     1   --> A              
     e( 32 - 32) =     15.11176  eV     1   --> A              
     e( 33 - 33) =     15.20188  eV     1   --> A              
     e( 34 - 34) =     15.98609  eV     1   --> A              
     e( 35 - 35) =     17.15912  eV     1   --> A              
     e( 36 - 36) =     17.22805  eV     1   --> A              
     e( 37 - 37) =     18.58682  eV     1   --> A              
     e( 38 - 38) =     18.99377  eV     1   --> A              
     e( 39 - 39) =     20.76648  eV     1   --> A              
     e( 40 - 40) =     21.27571  eV     1   --> A              

 **************************************************************************

 **************************************************************************

                    xk=(   0.10000,   0.00000,   0.00000  )

     Band symmetry, C_1 (1)     point group:

     e(  1 -  1) =    -15.83027  eV     1   --> A              
     e(  2 -  2) =    -14.60169  eV     1   --> A              
     e(  3 -  3) =     -7.32037  eV     1   --> A              
     e(  4 -  4) =     -4.55870  eV     1   --> A              
     e(  5 -  5) =     -4.18360  eV     1   --> A              
     e(  6 -  6) =     -3.99689  eV     1   --> A              
     e(  7 -  7) =     -3.31184  eV     1   --> A              
     e(  8 -  8) =     -2.78858  eV     1   --> A              
     e(  9 -  9) =     -1.86526  eV     1   --> A              
     e( 10 - 10) =      1.15299  eV     1   --> A              
     e( 11 - 11) =      1.18897  eV     1   --> A              
     e( 12 - 12) =      1.39809  eV     1   --> A              
     e( 13 - 13) =      1.54393  eV     1   --> A              
     e( 14 - 14) =      4.09451  eV     1   --> A              
     e( 15 - 15) =      4.27669  eV     1   --> A              
     e( 16 - 16) =      5.01069  eV     1   --> A              
     e( 17 - 17) =      5.77879  eV     1   --> A              
     e( 18 - 18) =      6.08041  eV     1   --> A              
     e( 19 - 19) =      7.22537  eV     1   --> A              
     e( 20 - 20) =      7.99830  eV     1   --> A              
     e( 21 - 21) =      8.83411  eV     1   --> A              
     e( 22 - 22) =      8.91462  eV     1   --> A              
     e( 23 - 23) =      9.66994  eV     1   --> A              
     e( 24 - 24) =     10.23907  eV     1   --> A              
     e( 25 - 25) =     10.73723  eV     1   --> A              
     e( 26 - 26) =     11.54666  eV     1   --> A              
     e( 27 - 27) =     11.55252  eV     1   --> A              
     e( 28 - 28) =     12.58888  eV     1   --> A              
     e( 29 - 29) =     13.83695  eV     1   --> A              
     e( 30 - 30) =     14.22246  eV     1   --> A              
     e( 31 - 31) =     14.63217  eV     1   --> A              
     e( 32 - 32) =     15.13899  eV     1   --> A              
     e( 33 - 33) =     15.23344  eV     1   --> A              
     e( 34 - 34) =     16.26669  eV     1   --> A              
     e( 35 - 35) =     17.28342  eV     1   --> A              
     e( 36 - 36) =     17.29973  eV     1   --> A              
     e( 37 - 37) =     18.89470  eV     1   --> A              
     e( 38 - 38) =     19.00490  eV     1   --> A              
     e( 39 - 39) =     20.64818  eV     1   --> A              
     e( 40 - 40) =     20.86150  eV     1   --> A              

 **************************************************************************

 **************************************************************************

                    xk=(   0.11667,  -0.00000,   0.00000  )

     Band symmetry, C_1 (1)     point group:

     e(  1 -  1) =    -15.78962  eV     1   --> A              
     e(  2 -  2) =    -14.58109  eV     1   --> A              
     e(  3 -  3) =     -7.27524  eV     1   --> A              
     e(  4 -  4) =     -4.63983  eV     1   --> A              
     e(  5 -  5) =     -4.13962  eV     1   --> A              
     e(  6 -  6) =     -4.10269  eV     1   --> A              
     e(  7 -  7) =     -3.38742  eV     1   --> A              
     e(  8 -  8) =     -2.73638  eV     1   --> A              
     e(  9 -  9) =     -1.88497  eV     1   --> A              
     e( 10 - 10) =      1.09301  eV     1   --> A              
     e( 11 - 11) =      1.10602  eV     1   --> A              
     e( 12 - 12) =      1.35200  eV     1   --> A              
     e( 13 - 13) =      1.61320  eV     1   --> A              
     e( 14 - 14) =      4.15822  eV     1   --> A              
     e( 15 - 15) =      4.33070  eV     1   --> A              
     e( 16 - 16) =      5.07612  eV     1   --> A              
     e( 17 - 17) =      5.93308  eV     1   --> A              
     e( 18 - 18) =      6.13214  eV     1   --> A              
     e( 19 - 19) =      7.27988  eV     1   --> A              
     e( 20 - 20) =      8.16361  eV     1   --> A              
     e( 21 - 21) =      8.81327  eV     1   --> A              
     e( 22 - 22) =      8.87522  eV     1   --> A              
     e( 23 - 23) =      9.77527  eV     1   --> A              
     e( 24 - 24) =     10.30742  eV     1   --> A              
     e( 25 - 25) =     10.54127  eV     1   --> A              
     e( 26 - 26) =     11.51773  eV     1   --> A              
     e( 27 - 27) =     11.55297  eV     1   --> A              
     e( 28 - 28) =     12.62217  eV     1   --> A              
     e( 29 - 29) =     13.80658  eV     1   --> A              
     e( 30 - 30) =     14.04887  eV     1   --> A              
     e( 31 - 31) =     14.47191  eV     1   --> A              
     e( 32 - 32) =     15.18116  eV     1   --> A              
     e( 33 - 33) =     15.26877  eV     1   --> A              
     e( 34 - 34) =     16.55619  eV     1   --> A              
     e( 35 - 35) =     17.39102  eV     1   --> A              
     e( 36 - 36) =     17.42594  eV     1   --> A              
     e( 37 - 37) =     19.01070  eV     1   --> A              
     e( 38 - 38) =     19.21644  eV     1   --> A              
     e( 39 - 39) =     20.45898  eV     1   --> A              
     e( 40 - 40) =     20.49690  eV     1   --> A              

 **************************************************************************

 **************************************************************************

                    xk=(   0.13333,   0.00000,   0.00000  )

     Band symmetry, C_1 (1)     point group:

     e(  1 -  1) =    -15.74316  eV     1   --> A              
     e(  2 -  2) =    -14.55756  eV     1   --> A              
     e(  3 -  3) =     -7.22482  eV     1   --> A              
     e(  4 -  4) =     -4.72821  eV     1   --> A              
     e(  5 -  5) =     -4.20829  eV     1   --> A              
     e(  6 -  6) =     -4.09010  eV     1   --> A              
     e(  7 -  7) =     -3.47492  eV     1   --> A              
     e(  8 -  8) =     -2.69088  eV     1   --> A              
     e(  9 -  9) =     -1.91048  eV     1   --> A              
     e( 10 - 10) =      0.99605  eV     1   --> A              
     e( 11 - 11) =      1.06201  eV     1   --> A              
     e( 12 - 12) =      1.30116  eV     1   --> A              
     e( 13 - 13) =      1.69015  eV     1   --> A              
     e( 14 - 14) =      4.22800  eV     1   --> A              
     e( 15 - 15) =      4.39259  eV     1   --> A              
     e( 16 - 16) =      5.14748  eV     1   --> A              
     e( 17 - 17) =      6.10473  eV     1   --> A              
     e( 18 - 18) =      6.19143  eV     1   --> A              
     e( 19 - 19) =      7.34306  eV     1   --> A              
     e( 20 - 20) =      8.33727  eV     1   --> A              
     e( 21 - 21) =      8.71258  eV     1   --> A              
     e( 22 - 22) =      8.91929  eV     1   --> A              
     e( 23 - 23) =      9.88391  eV     1   --> A              
     e( 24 - 24) =     10.35197  eV     1   --> A              
     e( 25 - 25) =     10.38045  eV     1   --> A              
     e( 26 - 26) =     11.48278  eV     1   --> A              
     e( 27 - 27) =     11.54671  eV     1   --> A              
     e( 28 - 28) =     12.65796  eV     1   --> A              
     e( 29 - 29) =     13.75940  eV     1   --> A              
     e( 30 - 30) =     13.90083  eV     1   --> A              
     e( 31 - 31) =     14.30541  eV     1   --> A              
     e( 32 - 32) =     15.23901  eV     1   --> A              
     e( 33 - 33) =     15.30689  eV     1   --> A              
     e( 34 - 34) =     16.83460  eV     1   --> A              
     e( 35 - 35) =     17.51557  eV     1   --> A              
     e( 36 - 36) =     17.58420  eV     1   --> A              
     e( 37 - 37) =     19.00176  eV     1   --> A              
     e( 38 - 38) =     19.54128  eV     1   --> A              
     e( 39 - 39) =     20.07111  eV     1   --> A              
     e( 40 - 40) =     20.28038  eV     1   --> A              

 **************************************************************************

 **************************************************************************

                    xk=(   0.15000,   0.00000,   0.00000  )

     Band symmetry, C_1 (1)     point group:

     e(  1 -  1) =    -15.69110  eV     1   --> A              
     e(  2 -  2) =    -14.53120  eV     1   --> A              
     e(  3 -  3) =     -7.16992  eV     1   --> A              
     e(  4 -  4) =     -4.82196  eV     1   --> A              
     e(  5 -  5) =     -4.31267  eV     1   --> A              
     e(  6 -  6) =     -4.03568  eV     1   --> A              
     e(  7 -  7) =     -3.57396  eV     1   --> A              
     e(  8 -  8) =     -2.65249  eV     1   --> A              
     e(  9 -  9) =     -1.94262  eV     1   --> A              
     e( 10 - 10) =      0.90101  eV     1   --> A              
     e( 11 - 11) =      1.02321  eV     1   --> A              
     e( 12 - 12) =      1.24686  eV     1   --> A              
     e( 13 - 13) =      1.77359  eV     1   --> A              
     e( 14 - 14) =      4.30369  eV     1   --> A              
     e( 15 - 15) =      4.46224  eV     1   --> A              
     e( 16 - 16) =      5.22481  eV     1   --> A              
     e( 17 - 17) =      6.25813  eV     1   --> A              
     e( 18 - 18) =      6.28990  eV     1   --> A              
     e( 19 - 19) =      7.41540  eV     1   --> A              
     e( 20 - 20) =      8.51216  eV     1   --> A              
     e( 21 - 21) =      8.61403  eV     1   --> A              
     e( 22 - 22) =      8.96333  eV     1   --> A              
     e( 23 - 23) =      9.98874  eV     1   --> A              
     e( 24 - 24) =     10.17850  eV     1   --> A              
     e( 25 - 25) =     10.45785  eV     1   --> A              
     e( 26 - 26) =     11.44800  eV     1   --> A              
     e( 27 - 27) =     11.53064  eV     1   --> A              
     e( 28 - 28) =     12.69668  eV     1   --> A              
     e( 29 - 29) =     13.67627  eV     1   --> A              
     e( 30 - 30) =     13.78552  eV     1   --> A              
     e( 31 - 31) =     14.15590  eV     1   --> A              
     e( 32 - 32) =     15.31230  eV     1   --> A              
     e( 33 - 33) =     15.34656  eV     1   --> A              
     e( 34 - 34) =     17.07497  eV     1   --> A              
     e( 35 - 35) =     17.69327  eV     1   --> A              
     e( 36 - 36) =     17.75531  eV     1   --> A              
     e( 37 - 37) =     18.96198  eV     1   --> A              
     e( 38 - 38) =     19.69298  eV     1   --> A              
     e( 39 - 39) =     19.84319  eV     1   --> A              
     e( 40 - 40) =     19.97593  eV     1   --> A              

 **************************************************************************

 **************************************************************************

                    xk=(   0.16667,  -0.00000,   0.00000  )

     Band symmetry, C_1 (1)     point group:

     e(  1 -  1) =    -15.63364  eV     1   --> A              
     e(  2 -  2) =    -14.50213  eV     1   --> A              
     e(  3 -  3) =     -7.11150  eV     1   --> A              
     e(  4 -  4) =     -4.91908  eV     1   --> A              
     e(  5 -  5) =     -4.41505  eV     1   --> A              
     e(  6 -  6) =     -3.97720  eV     1   --> A              
     e(  7 -  7) =     -3.68390  eV     1   --> A              
     e(  8 -  8) =     -2.62138  eV     1   --> A              
     e(  9 -  9) =     -1.98200  eV     1   --> A              
     e( 10 - 10) =      0.81020  eV     1   --> A              
     e( 11 - 11) =      0.99136  eV     1   --> A              
     e( 12 - 12) =      1.19073  eV     1   --> A              
     e( 13 - 13) =      1.86230  eV     1   --> A              
     e( 14 - 14) =      4.38521  eV     1   --> A              
     e( 15 - 15) =      4.53949  eV     1   --> A              
     e( 16 - 16) =      5.30832  eV     1   --> A              
     e( 17 - 17) =      6.33206  eV     1   --> A              
     e( 18 - 18) =      6.48433  eV     1   --> A              
     e( 19 - 19) =      7.49777  eV     1   --> A              
     e( 20 - 20) =      8.51857  eV     1   --> A              
     e( 21 - 21) =      8.67897  eV     1   --> A              
     e( 22 - 22) =      9.00236  eV     1   --> A              
     e( 23 - 23) =     10.03314  eV     1   --> A              
     e( 24 - 24) =     10.08121  eV     1   --> A              
     e( 25 - 25) =     10.53772  eV     1   --> A              
     e( 26 - 26) =     11.42354  eV     1   --> A              
     e( 27 - 27) =     11.50221  eV     1   --> A              
     e( 28 - 28) =     12.74011  eV     1   --> A              
     e( 29 - 29) =     13.53366  eV     1   --> A              
     e( 30 - 30) =     13.70740  eV     1   --> A              
     e( 31 - 31) =     14.05145  eV     1   --> A              
     e( 32 - 32) =     15.38640  eV     1   --> A              
     e( 33 - 33) =     15.40028  eV     1   --> A              
     e( 34 - 34) =     17.26106  eV     1   --> A              
     e( 35 - 35) =     17.92922  eV     1   --> A              
     e( 36 - 36) =     17.93600  eV     1   --> A              
     e( 37 - 37) =     18.86954  eV     1   --> A              
     e( 38 - 38) =     19.35125  eV     1   --> A              
     e( 39 - 39) =     19.61766  eV     1   --> A              
     e( 40 - 40) =     19.75776  eV     1   --> A              

 **************************************************************************

 **************************************************************************

                    xk=(   0.18333,  -0.00000,   0.00000  )

     Band symmetry, C_1 (1)     point group:

     e(  1 -  1) =    -15.57103  eV     1   --> A              
     e(  2 -  2) =    -14.47048  eV     1   --> A              
     e(  3 -  3) =     -7.05079  eV     1   --> A              
     e(  4 -  4) =     -5.01745  eV     1   --> A              
     e(  5 -  5) =     -4.51486  eV     1   --> A              
     e(  6 -  6) =     -3.91573  eV     1   --> A              
     e(  7 -  7) =     -3.80376  eV     1   --> A              
     e(  8 -  8) =     -2.59762  eV     1   --> A              
     e(  9 -  9) =     -2.02892  eV     1   --> A              
     e( 10 - 10) =      0.72521  eV     1   --> A              
     e( 11 - 11) =      0.96769  eV     1   --> A              
     e( 12 - 12) =      1.13472  eV     1   --> A              
     e( 13 - 13) =      1.95494  eV     1   --> A              
     e( 14 - 14) =      4.47257  eV     1   --> A              
     e( 15 - 15) =      4.62417  eV     1   --> A              
     e( 16 - 16) =      5.39823  eV     1   --> A              
     e( 17 - 17) =      6.41301  eV     1   --> A              
     e( 18 - 18) =      6.68321  eV     1   --> A              
     e( 19 - 19) =      7.59145  eV     1   --> A              
     e( 20 - 20) =      8.42660  eV     1   --> A              
     e( 21 - 21) =      8.82218  eV     1   --> A              
     e( 22 - 22) =      9.03210  eV     1   --> A              
     e( 23 - 23) =      9.93300  eV     1   --> A              
     e( 24 - 24) =     10.15235  eV     1   --> A              
     e( 25 - 25) =     10.61562  eV     1   --> A              
     e( 26 - 26) =     11.42237  eV     1   --> A              
     e( 27 - 27) =     11.46044  eV     1   --> A              
     e( 28 - 28) =     12.79153  eV     1   --> A              
     e( 29 - 29) =     13.33435  eV     1   --> A              
     e( 30 - 30) =     13.66694  eV     1   --> A              
     e( 31 - 31) =     13.99465  eV     1   --> A              
     e( 32 - 32) =     15.42484  eV     1   --> A              
     e( 33 - 33) =     15.50183  eV     1   --> A              
     e( 34 - 34) =     17.40568  eV     1   --> A              
     e( 35 - 35) =     18.12212  eV     1   --> A              
     e( 36 - 36) =     18.18073  eV     1   --> A              
     e( 37 - 37) =     18.70746  eV     1   --> A              
     e( 38 - 38) =     19.05422  eV     1   --> A              
     e( 39 - 39) =     19.24452  eV     1   --> A              
     e( 40 - 40) =     19.40233  eV     1   --> A              

 **************************************************************************

 **************************************************************************

                    xk=(   0.20000,   0.00000,   0.00000  )

     Band symmetry, C_1 (1)     point group:

     e(  1 -  1) =    -15.50357  eV     1   --> A              
     e(  2 -  2) =    -14.43641  eV     1   --> A              
     e(  3 -  3) =     -6.98927  eV     1   --> A              
     e(  4 -  4) =     -5.11481  eV     1   --> A              
     e(  5 -  5) =     -4.61173  eV     1   --> A              
     e(  6 -  6) =     -3.93224  eV     1   --> A              
     e(  7 -  7) =     -3.85270  eV     1   --> A              
     e(  8 -  8) =     -2.58121  eV     1   --> A              
     e(  9 -  9) =     -2.08314  eV     1   --> A              
     e( 10 - 10) =      0.64685  eV     1   --> A              
     e( 11 - 11) =      0.95294  eV     1   --> A              
     e( 12 - 12) =      1.08110  eV     1   --> A              
     e( 13 - 13) =      2.05018  eV     1   --> A              
     e( 14 - 14) =      4.56575  eV     1   --> A              
     e( 15 - 15) =      4.71611  eV     1   --> A              
     e( 16 - 16) =      5.49472  eV     1   --> A              
     e( 17 - 17) =      6.50070  eV     1   --> A              
     e( 18 - 18) =      6.88111  eV     1   --> A              
     e( 19 - 19) =      7.69825  eV     1   --> A              
     e( 20 - 20) =      8.33819  eV     1   --> A              
     e( 21 - 21) =      8.90102  eV     1   --> A              
     e( 22 - 22) =      9.07220  eV     1   --> A              
     e( 23 - 23) =      9.89616  eV     1   --> A              
     e( 24 - 24) =     10.19461  eV     1   --> A              
     e( 25 - 25) =     10.68666  eV     1   --> A              
     e( 26 - 26) =     11.40691  eV     1   --> A              
     e( 27 - 27) =     11.45482  eV     1   --> A              
     e( 28 - 28) =     12.85485  eV     1   --> A              
     e( 29 - 29) =     13.10410  eV     1   --> A              
     e( 30 - 30) =     13.66047  eV     1   --> A              
     e( 31 - 31) =     13.96735  eV     1   --> A              
     e( 32 - 32) =     15.46023  eV     1   --> A              
     e( 33 - 33) =     15.61573  eV     1   --> A              
     e( 34 - 34) =     17.52941  eV     1   --> A              
     e( 35 - 35) =     18.30283  eV     1   --> A              
     e( 36 - 36) =     18.30837  eV     1   --> A              
     e( 37 - 37) =     18.48065  eV     1   --> A              
     e( 38 - 38) =     18.87699  eV     1   --> A              
     e( 39 - 39) =     18.88091  eV     1   --> A              
     e( 40 - 40) =     19.07760  eV     1   --> A              

 **************************************************************************

 **************************************************************************

                    xk=(   0.21667,   0.00000,   0.00000  )

     Band symmetry, C_1 (1)     point group:

     e(  1 -  1) =    -15.43155  eV     1   --> A              
     e(  2 -  2) =    -14.40006  eV     1   --> A              
     e(  3 -  3) =     -6.92877  eV     1   --> A              
     e(  4 -  4) =     -5.20865  eV     1   --> A              
     e(  5 -  5) =     -4.70556  eV     1   --> A              
     e(  6 -  6) =     -4.06767  eV     1   --> A              
     e(  7 -  7) =     -3.78991  eV     1   --> A              
     e(  8 -  8) =     -2.57207  eV     1   --> A              
     e(  9 -  9) =     -2.14372  eV     1   --> A              
     e( 10 - 10) =      0.57528  eV     1   --> A              
     e( 11 - 11) =      0.94738  eV     1   --> A              
     e( 12 - 12) =      1.03237  eV     1   --> A              
     e( 13 - 13) =      2.14665  eV     1   --> A              
     e( 14 - 14) =      4.66472  eV     1   --> A              
     e( 15 - 15) =      4.81506  eV     1   --> A              
     e( 16 - 16) =      5.59796  eV     1   --> A              
     e( 17 - 17) =      6.59484  eV     1   --> A              
     e( 18 - 18) =      7.07182  eV     1   --> A              
     e( 19 - 19) =      7.82017  eV     1   --> A              
     e( 20 - 20) =      8.25356  eV     1   --> A              
     e( 21 - 21) =      8.87782  eV     1   --> A              
     e( 22 - 22) =      9.15258  eV     1   --> A              
     e( 23 - 23) =      9.92731  eV     1   --> A              
     e( 24 - 24) =     10.20499  eV     1   --> A              
     e( 25 - 25) =     10.74974  eV     1   --> A              
     e( 26 - 26) =     11.34585  eV     1   --> A              
     e( 27 - 27) =     11.51822  eV     1   --> A              
     e( 28 - 28) =     12.86883  eV     1   --> A              
     e( 29 - 29) =     12.93300  eV     1   --> A              
     e( 30 - 30) =     13.68134  eV     1   --> A              
     e( 31 - 31) =     13.95633  eV     1   --> A              
     e( 32 - 32) =     15.49116  eV     1   --> A              
     e( 33 - 33) =     15.74072  eV     1   --> A              
     e( 34 - 34) =     17.64287  eV     1   --> A              
     e( 35 - 35) =     18.16809  eV     1   --> A              
     e( 36 - 36) =     18.19107  eV     1   --> A              
     e( 37 - 37) =     18.39838  eV     1   --> A              
     e( 38 - 38) =     18.61438  eV     1   --> A              
     e( 39 - 39) =     18.61987  eV     1   --> A              
     e( 40 - 40) =     19.13604  eV     1   --> A              

 **************************************************************************

 **************************************************************************

                    xk=(   0.23333,  -0.00000,   0.00000  )

     Band symmetry, C_1 (1)     point group:

     e(  1 -  1) =    -15.35532  eV     1   --> A              
     e(  2 -  2) =    -14.36163  eV     1   --> A              
     e(  3 -  3) =     -6.87155  eV     1   --> A              
     e(  4 -  4) =     -5.29623  eV     1   --> A              
     e(  5 -  5) =     -4.79665  eV     1   --> A              
     e(  6 -  6) =     -4.20794  eV     1   --> A              
     e(  7 -  7) =     -3.72973  eV     1   --> A              
     e(  8 -  8) =     -2.57011  eV     1   --> A              
     e(  9 -  9) =     -2.20894  eV     1   --> A              
     e( 10 - 10) =      0.51023  eV     1   --> A              
     e( 11 - 11) =      0.95095  eV     1   --> A              
     e( 12 - 12) =      0.99103  eV     1   --> A              
     e( 13 - 13) =      2.24304  eV     1   --> A              
     e( 14 - 14) =      4.76940  eV     1   --> A              
     e( 15 - 15) =      4.92077  eV     1   --> A              
     e( 16 - 16) =      5.70807  eV     1   --> A              
     e( 17 - 17) =      6.69505  eV     1   --> A              
     e( 18 - 18) =      7.24843  eV     1   --> A              
     e( 19 - 19) =      7.95764  eV     1   --> A              
     e( 20 - 20) =      8.17481  eV     1   --> A              
     e( 21 - 21) =      8.79954  eV     1   --> A              
     e( 22 - 22) =      9.23907  eV     1   --> A              
     e( 23 - 23) =     10.01099  eV     1   --> A              
     e( 24 - 24) =     10.18755  eV     1   --> A              
     e( 25 - 25) =     10.80700  eV     1   --> A              
     e( 26 - 26) =     11.28308  eV     1   --> A              
     e( 27 - 27) =     11.58708  eV     1   --> A              
     e( 28 - 28) =     12.65953  eV     1   --> A              
     e( 29 - 29) =     13.02654  eV     1   --> A              
     e( 30 - 30) =     13.72153  eV     1   --> A              
     e( 31 - 31) =     13.95609  eV     1   --> A              
     e( 32 - 32) =     15.51685  eV     1   --> A              
     e( 33 - 33) =     15.87555  eV     1   --> A              
     e( 34 - 34) =     17.74162  eV     1   --> A              
     e( 35 - 35) =     17.88399  eV     1   --> A              
     e( 36 - 36) =     17.92915  eV     1   --> A              
     e( 37 - 37) =     18.09684  eV     1   --> A              
     e( 38 - 38) =     18.28426  eV     1   --> A              
     e( 39 - 39) =     18.73818  eV     1   --> A              
     e( 40 - 40) =     18.87159  eV     1   --> A              

 **************************************************************************

 **************************************************************************

                    xk=(   0.25000,   0.00000,   0.00000  )

     Band symmetry, C_1 (1)     point group:

     e(  1 -  1) =    -15.27525  eV     1   --> A              
     e(  2 -  2) =    -14.32129  eV     1   --> A              
     e(  3 -  3) =     -6.82026  eV     1   --> A              
     e(  4 -  4) =     -5.37448  eV     1   --> A              
     e(  5 -  5) =     -4.88589  eV     1   --> A              
     e(  6 -  6) =     -4.35031  eV     1   --> A              
     e(  7 -  7) =     -3.67520  eV     1   --> A              
     e(  8 -  8) =     -2.57521  eV     1   --> A              
     e(  9 -  9) =     -2.27613  eV     1   --> A              
     e( 10 - 10) =      0.45134  eV     1   --> A              
     e( 11 - 11) =      0.95919  eV     1   --> A              
     e( 12 - 12) =      0.96328  eV     1   --> A              
     e( 13 - 13) =      2.33806  eV     1   --> A              
     e( 14 - 14) =      4.87965  eV     1   --> A              
     e( 15 - 15) =      5.03292  eV     1   --> A              
     e( 16 - 16) =      5.82515  eV     1   --> A              
     e( 17 - 17) =      6.80088  eV     1   --> A              
     e( 18 - 18) =      7.40308  eV     1   --> A              
     e( 19 - 19) =      8.06958  eV     1   --> A              
     e( 20 - 20) =      8.14605  eV     1   --> A              
     e( 21 - 21) =      8.70199  eV     1   --> A              
     e( 22 - 22) =      9.31596  eV     1   --> A              
     e( 23 - 23) =     10.12534  eV     1   --> A              
     e( 24 - 24) =     10.15249  eV     1   --> A              
     e( 25 - 25) =     10.85756  eV     1   --> A              
     e( 26 - 26) =     11.22470  eV     1   --> A              
     e( 27 - 27) =     11.60842  eV     1   --> A              
     e( 28 - 28) =     12.52750  eV     1   --> A              
     e( 29 - 29) =     13.13315  eV     1   --> A              
     e( 30 - 30) =     13.77278  eV     1   --> A              
     e( 31 - 31) =     13.96520  eV     1   --> A              
     e( 32 - 32) =     15.53787  eV     1   --> A              
     e( 33 - 33) =     16.01905  eV     1   --> A              
     e( 34 - 34) =     17.56114  eV     1   --> A              
     e( 35 - 35) =     17.67699  eV     1   --> A              
     e( 36 - 36) =     17.74445  eV     1   --> A              
     e( 37 - 37) =     17.75701  eV     1   --> A              
     e( 38 - 38) =     18.04272  eV     1   --> A              
     e( 39 - 39) =     18.51892  eV     1   --> A              
     e( 40 - 40) =     18.64421  eV     1   --> A              

 **************************************************************************

 **************************************************************************

                    xk=(   0.26667,   0.00000,   0.00000  )

     Band symmetry, C_1 (1)     point group:

     e(  1 -  1) =    -15.19174  eV     1   --> A              
     e(  2 -  2) =    -14.27925  eV     1   --> A              
     e(  3 -  3) =     -6.77794  eV     1   --> A              
     e(  4 -  4) =     -5.44019  eV     1   --> A              
     e(  5 -  5) =     -4.97508  eV     1   --> A              
     e(  6 -  6) =     -4.49117  eV     1   --> A              
     e(  7 -  7) =     -3.63012  eV     1   --> A              
     e(  8 -  8) =     -2.58725  eV     1   --> A              
     e(  9 -  9) =     -2.34169  eV     1   --> A              
     e( 10 - 10) =      0.39864  eV     1   --> A              
     e( 11 - 11) =      0.93819  eV     1   --> A              
     e( 12 - 12) =      0.98374  eV     1   --> A              
     e( 13 - 13) =      2.43049  eV     1   --> A              
     e( 14 - 14) =      4.99523  eV     1   --> A              
     e( 15 - 15) =      5.15118  eV     1   --> A              
     e( 16 - 16) =      5.94924  eV     1   --> A              
     e( 17 - 17) =      6.91178  eV     1   --> A              
     e( 18 - 18) =      7.52370  eV     1   --> A              
     e( 19 - 19) =      8.03005  eV     1   --> A              
     e( 20 - 20) =      8.30012  eV     1   --> A              
     e( 21 - 21) =      8.60184  eV     1   --> A              
     e( 22 - 22) =      9.38221  eV     1   --> A              
     e( 23 - 23) =     10.11189  eV     1   --> A              
     e( 24 - 24) =     10.25422  eV     1   --> A              
     e( 25 - 25) =     10.89178  eV     1   --> A              
     e( 26 - 26) =     11.17593  eV     1   --> A              
     e( 27 - 27) =     11.53443  eV     1   --> A              
     e( 28 - 28) =     12.52363  eV     1   --> A              
     e( 29 - 29) =     13.24704  eV     1   --> A              
     e( 30 - 30) =     13.82740  eV     1   --> A              
     e( 31 - 31) =     13.98439  eV     1   --> A              
     e( 32 - 32) =     15.55671  eV     1   --> A              
     e( 33 - 33) =     16.17001  eV     1   --> A              
     e( 34 - 34) =     17.23359  eV     1   --> A              
     e( 35 - 35) =     17.39454  eV     1   --> A              
     e( 36 - 36) =     17.44264  eV     1   --> A              
     e( 37 - 37) =     17.51034  eV     1   --> A              
     e( 38 - 38) =     18.06983  eV     1   --> A              
     e( 39 - 39) =     18.16716  eV     1   --> A              
     e( 40 - 40) =     18.29403  eV     1   --> A              

 **************************************************************************

 **************************************************************************

                    xk=(   0.28333,  -0.00000,   0.00000  )

     Band symmetry, C_1 (1)     point group:

     e(  1 -  1) =    -15.10525  eV     1   --> A              
     e(  2 -  2) =    -14.23573  eV     1   --> A              
     e(  3 -  3) =     -6.74759  eV     1   --> A              
     e(  4 -  4) =     -5.49024  eV     1   --> A              
     e(  5 -  5) =     -5.06738  eV     1   --> A              
     e(  6 -  6) =     -4.62560  eV     1   --> A              
     e(  7 -  7) =     -3.59903  eV     1   --> A              
     e(  8 -  8) =     -2.60608  eV     1   --> A              
     e(  9 -  9) =     -2.40119  eV     1   --> A              
     e( 10 - 10) =      0.35288  eV     1   --> A              
     e( 11 - 11) =      0.92843  eV     1   --> A              
     e( 12 - 12) =      1.01154  eV     1   --> A              
     e( 13 - 13) =      2.51923  eV     1   --> A              
     e( 14 - 14) =      5.11583  eV     1   --> A              
     e( 15 - 15) =      5.27513  eV     1   --> A              
     e( 16 - 16) =      6.08038  eV     1   --> A              
     e( 17 - 17) =      7.02709  eV     1   --> A              
     e( 18 - 18) =      7.58603  eV     1   --> A              
     e( 19 - 19) =      8.01440  eV     1   --> A              
     e( 20 - 20) =      8.48042  eV     1   --> A              
     e( 21 - 21) =      8.50820  eV     1   --> A              
     e( 22 - 22) =      9.43890  eV     1   --> A              
     e( 23 - 23) =     10.07663  eV     1   --> A              
     e( 24 - 24) =     10.38866  eV     1   --> A              
     e( 25 - 25) =     10.88102  eV     1   --> A              
     e( 26 - 26) =     11.14044  eV     1   --> A              
     e( 27 - 27) =     11.40645  eV     1   --> A              
     e( 28 - 28) =     12.62833  eV     1   --> A              
     e( 29 - 29) =     13.35757  eV     1   --> A              
     e( 30 - 30) =     13.88038  eV     1   --> A              
     e( 31 - 31) =     14.01565  eV     1   --> A              
     e( 32 - 32) =     15.57783  eV     1   --> A              
     e( 33 - 33) =     16.32704  eV     1   --> A              
     e( 34 - 34) =     16.90811  eV     1   --> A              
     e( 35 - 35) =     17.05147  eV     1   --> A              
     e( 36 - 36) =     17.16272  eV     1   --> A              
     e( 37 - 37) =     17.26269  eV     1   --> A              
     e( 38 - 38) =     17.81951  eV     1   --> A              
     e( 39 - 39) =     17.94603  eV     1   --> A              
     e( 40 - 40) =     18.16967  eV     1   --> A              

 **************************************************************************

 **************************************************************************

                    xk=(   0.30000,   0.00000,   0.00000  )

     Band symmetry, C_1 (1)     point group:

     e(  1 -  1) =    -15.01625  eV     1   --> A              
     e(  2 -  2) =    -14.19098  eV     1   --> A              
     e(  3 -  3) =     -6.73155  eV     1   --> A              
     e(  4 -  4) =     -5.52234  eV     1   --> A              
     e(  5 -  5) =     -5.16730  eV     1   --> A              
     e(  6 -  6) =     -4.74745  eV     1   --> A              
     e(  7 -  7) =     -3.58668  eV     1   --> A              
     e(  8 -  8) =     -2.63154  eV     1   --> A              
     e(  9 -  9) =     -2.44997  eV     1   --> A              
     e( 10 - 10) =      0.31545  eV     1   --> A              
     e( 11 - 11) =      0.92930  eV     1   --> A              
     e( 12 - 12) =      1.04572  eV     1   --> A              
     e( 13 - 13) =      2.60333  eV     1   --> A              
     e( 14 - 14) =      5.24100  eV     1   --> A              
     e( 15 - 15) =      5.40435  eV     1   --> A              
     e( 16 - 16) =      6.21855  eV     1   --> A              
     e( 17 - 17) =      7.14595  eV     1   --> A              
     e( 18 - 18) =      7.56937  eV     1   --> A              
     e( 19 - 19) =      8.06116  eV     1   --> A              
     e( 20 - 20) =      8.42657  eV     1   --> A              
     e( 21 - 21) =      8.66297  eV     1   --> A              
     e( 22 - 22) =      9.48762  eV     1   --> A              
     e( 23 - 23) =     10.05546  eV     1   --> A              
     e( 24 - 24) =     10.52433  eV     1   --> A              
     e( 25 - 25) =     10.77596  eV     1   --> A              
     e( 26 - 26) =     11.12029  eV     1   --> A              
     e( 27 - 27) =     11.32333  eV     1   --> A              
     e( 28 - 28) =     12.78640  eV     1   --> A              
     e( 29 - 29) =     13.44602  eV     1   --> A              
     e( 30 - 30) =     13.93449  eV     1   --> A              
     e( 31 - 31) =     14.06134  eV     1   --> A              
     e( 32 - 32) =     15.60539  eV     1   --> A              
     e( 33 - 33) =     16.48227  eV     1   --> A              
     e( 34 - 34) =     16.59552  eV     1   --> A              
     e( 35 - 35) =     16.71744  eV     1   --> A              
     e( 36 - 36) =     16.84481  eV     1   --> A              
     e( 37 - 37) =     17.07456  eV     1   --> A              
     e( 38 - 38) =     17.47845  eV     1   --> A              
     e( 39 - 39) =     17.60682  eV     1   --> A              
     e( 40 - 40) =     18.24850  eV     1   --> A              

 **************************************************************************

 **************************************************************************

                    xk=(   0.31667,   0.00000,   0.00000  )

     Band symmetry, C_1 (1)     point group:

     e(  1 -  1) =    -14.92527  eV     1   --> A              
     e(  2 -  2) =    -14.14524  eV     1   --> A              
     e(  3 -  3) =     -6.73075  eV     1   --> A              
     e(  4 -  4) =     -5.53574  eV     1   --> A              
     e(  5 -  5) =     -5.27919  eV     1   --> A              
     e(  6 -  6) =     -4.85082  eV     1   --> A              
     e(  7 -  7) =     -3.59694  eV     1   --> A              
     e(  8 -  8) =     -2.66342  eV     1   --> A              
     e(  9 -  9) =     -2.48419  eV     1   --> A              
     e( 10 - 10) =      0.28830  eV     1   --> A              
     e( 11 - 11) =      0.93946  eV     1   --> A              
     e( 12 - 12) =      1.08520  eV     1   --> A              
     e( 13 - 13) =      2.68204  eV     1   --> A              
     e( 14 - 14) =      5.37009  eV     1   --> A              
     e( 15 - 15) =      5.53834  eV     1   --> A              
     e( 16 - 16) =      6.36364  eV     1   --> A              
     e( 17 - 17) =      7.26723  eV     1   --> A              
     e( 18 - 18) =      7.49477  eV     1   --> A              
     e( 19 - 19) =      8.15252  eV     1   --> A              
     e( 20 - 20) =      8.36083  eV     1   --> A              
     e( 21 - 21) =      8.83728  eV     1   --> A              
     e( 22 - 22) =      9.53074  eV     1   --> A              
     e( 23 - 23) =     10.05464  eV     1   --> A              
     e( 24 - 24) =     10.58092  eV     1   --> A              
     e( 25 - 25) =     10.65862  eV     1   --> A              
     e( 26 - 26) =     11.11666  eV     1   --> A              
     e( 27 - 27) =     11.31372  eV     1   --> A              
     e( 28 - 28) =     12.96220  eV     1   --> A              
     e( 29 - 29) =     13.48538  eV     1   --> A              
     e( 30 - 30) =     14.00371  eV     1   --> A              
     e( 31 - 31) =     14.12276  eV     1   --> A              
     e( 32 - 32) =     15.63785  eV     1   --> A              
     e( 33 - 33) =     16.27309  eV     1   --> A              
     e( 34 - 34) =     16.39129  eV     1   --> A              
     e( 35 - 35) =     16.53069  eV     1   --> A              
     e( 36 - 36) =     16.66348  eV     1   --> A              
     e( 37 - 37) =     16.91461  eV     1   --> A              
     e( 38 - 38) =     17.14619  eV     1   --> A              
     e( 39 - 39) =     17.27848  eV     1   --> A              
     e( 40 - 40) =     18.16707  eV     1   --> A              

 **************************************************************************

 **************************************************************************

                    xk=(   0.33333,  -0.00000,   0.00000  )

     Band symmetry, C_1 (1)     point group:

     e(  1 -  1) =    -14.83287  eV     1   --> A              
     e(  2 -  2) =    -14.09877  eV     1   --> A              
     e(  3 -  3) =     -6.74413  eV     1   --> A              
     e(  4 -  4) =     -5.53175  eV     1   --> A              
     e(  5 -  5) =     -5.40440  eV     1   --> A              
     e(  6 -  6) =     -4.93293  eV     1   --> A              
     e(  7 -  7) =     -3.63146  eV     1   --> A              
     e(  8 -  8) =     -2.70148  eV     1   --> A              
     e(  9 -  9) =     -2.50213  eV     1   --> A              
     e( 10 - 10) =      0.27344  eV     1   --> A              
     e( 11 - 11) =      0.95710  eV     1   --> A              
     e( 12 - 12) =      1.12879  eV     1   --> A              
     e( 13 - 13) =      2.75486  eV     1   --> A              
     e( 14 - 14) =      5.50221  eV     1   --> A              
     e( 15 - 15) =      5.67656  eV     1   --> A              
     e( 16 - 16) =      6.51546  eV     1   --> A              
     e( 17 - 17) =      7.38943  eV     1   --> A              
     e( 18 - 18) =      7.39134  eV     1   --> A              
     e( 19 - 19) =      8.26134  eV     1   --> A              
     e( 20 - 20) =      8.31423  eV     1   --> A              
     e( 21 - 21) =      8.99213  eV     1   --> A              
     e( 22 - 22) =      9.57136  eV     1   --> A              
     e( 23 - 23) =     10.07273  eV     1   --> A              
     e( 24 - 24) =     10.36076  eV     1   --> A              
     e( 25 - 25) =     10.78745  eV     1   --> A              
     e( 26 - 26) =     11.13208  eV     1   --> A              
     e( 27 - 27) =     11.33926  eV     1   --> A              
     e( 28 - 28) =     13.13698  eV     1   --> A              
     e( 29 - 29) =     13.45722  eV     1   --> A              
     e( 30 - 30) =     14.09937  eV     1   --> A              
     e( 31 - 31) =     14.19723  eV     1   --> A              
     e( 32 - 32) =     15.66097  eV     1   --> A              
     e( 33 - 33) =     15.97521  eV     1   --> A              
     e( 34 - 34) =     16.08230  eV     1   --> A              
     e( 35 - 35) =     16.22742  eV     1   --> A              
     e( 36 - 36) =     16.78555  eV     1   --> A              
     e( 37 - 37) =     16.80373  eV     1   --> A              
     e( 38 - 38) =     16.84690  eV     1   --> A              
     e( 39 - 39) =     16.96963  eV     1   --> A              
     e( 40 - 40) =     17.95441  eV     1   --> A              

 **************************************************************************

 **************************************************************************

                    xk=(   0.35000,  -0.00000,   0.00000  )

     Band symmetry, C_1 (1)     point group:

     e(  1 -  1) =    -14.73964  eV     1   --> A              
     e(  2 -  2) =    -14.05185  eV     1   --> A              
     e(  3 -  3) =     -6.76894  eV     1   --> A              
     e(  4 -  4) =     -5.54037  eV     1   --> A              
     e(  5 -  5) =     -5.51349  eV     1   --> A              
     e(  6 -  6) =     -4.99504  eV     1   --> A              
     e(  7 -  7) =     -3.68904  eV     1   --> A              
     e(  8 -  8) =     -2.74544  eV     1   --> A              
     e(  9 -  9) =     -2.50475  eV     1   --> A              
     e( 10 - 10) =      0.27261  eV     1   --> A              
     e( 11 - 11) =      0.98023  eV     1   --> A              
     e( 12 - 12) =      1.17518  eV     1   --> A              
     e( 13 - 13) =      2.82159  eV     1   --> A              
     e( 14 - 14) =      5.63598  eV     1   --> A              
     e( 15 - 15) =      5.81842  eV     1   --> A              
     e( 16 - 16) =      6.67337  eV     1   --> A              
     e( 17 - 17) =      7.27430  eV     1   --> A              
     e( 18 - 18) =      7.51049  eV     1   --> A              
     e( 19 - 19) =      8.28994  eV     1   --> A              
     e( 20 - 20) =      8.37290  eV     1   --> A              
     e( 21 - 21) =      9.11434  eV     1   --> A              
     e( 22 - 22) =      9.61297  eV     1   --> A              
     e( 23 - 23) =     10.03900  eV     1   --> A              
     e( 24 - 24) =     10.23293  eV     1   --> A              
     e( 25 - 25) =     10.90058  eV     1   --> A              
     e( 26 - 26) =     11.17483  eV     1   --> A              
     e( 27 - 27) =     11.37548  eV     1   --> A              
     e( 28 - 28) =     13.30078  eV     1   --> A              
     e( 29 - 29) =     13.36719  eV     1   --> A              
     e( 30 - 30) =     14.21448  eV     1   --> A              
     e( 31 - 31) =     14.27360  eV     1   --> A              
     e( 32 - 32) =     15.64537  eV     1   --> A              
     e( 33 - 33) =     15.68530  eV     1   --> A              
     e( 34 - 34) =     15.79914  eV     1   --> A              
     e( 35 - 35) =     15.94054  eV     1   --> A              
     e( 36 - 36) =     16.51185  eV     1   --> A              
     e( 37 - 37) =     16.65484  eV     1   --> A              
     e( 38 - 38) =     16.69762  eV     1   --> A              
     e( 39 - 39) =     17.01949  eV     1   --> A              
     e( 40 - 40) =     17.67101  eV     1   --> A              

 **************************************************************************

 **************************************************************************

                    xk=(   0.36667,  -0.00000,   0.00000  )

     Band symmetry, C_1 (1)     point group:

     e(  1 -  1) =    -14.64621  eV     1   --> A              
     e(  2 -  2) =    -14.00478  eV     1   --> A              
     e(  3 -  3) =     -6.80145  eV     1   --> A              
     e(  4 -  4) =     -5.68274  eV     1   --> A              
     e(  5 -  5) =     -5.48509  eV     1   --> A              
     e(  6 -  6) =     -5.04037  eV     1   --> A              
     e(  7 -  7) =     -3.76628  eV     1   --> A              
     e(  8 -  8) =     -2.79498  eV     1   --> A              
     e(  9 -  9) =     -2.49484  eV     1   --> A              
     e( 10 - 10) =      0.28689  eV     1   --> A              
     e( 11 - 11) =      1.00686  eV     1   --> A              
     e( 12 - 12) =      1.22292  eV     1   --> A              
     e( 13 - 13) =      2.88238  eV     1   --> A              
     e( 14 - 14) =      5.76917  eV     1   --> A              
     e( 15 - 15) =      5.96326  eV     1   --> A              
     e( 16 - 16) =      6.83490  eV     1   --> A              
     e( 17 - 17) =      7.15401  eV     1   --> A              
     e( 18 - 18) =      7.62774  eV     1   --> A              
     e( 19 - 19) =      8.29135  eV     1   --> A              
     e( 20 - 20) =      8.47518  eV     1   --> A              
     e( 21 - 21) =      9.18880  eV     1   --> A              
     e( 22 - 22) =      9.65891  eV     1   --> A              
     e( 23 - 23) =      9.88838  eV     1   --> A              
     e( 24 - 24) =     10.29784  eV     1   --> A              
     e( 25 - 25) =     10.98210  eV     1   --> A              
     e( 26 - 26) =     11.25863  eV     1   --> A              
     e( 27 - 27) =     11.41368  eV     1   --> A              
     e( 28 - 28) =     13.23180  eV     1   --> A              
     e( 29 - 29) =     13.44899  eV     1   --> A              
     e( 30 - 30) =     14.32793  eV     1   --> A              
     e( 31 - 31) =     14.33310  eV     1   --> A              
     e( 32 - 32) =     15.39707  eV     1   --> A              
     e( 33 - 33) =     15.55523  eV     1   --> A              
     e( 34 - 34) =     15.56046  eV     1   --> A              
     e( 35 - 35) =     15.68490  eV     1   --> A              
     e( 36 - 36) =     16.21681  eV     1   --> A              
     e( 37 - 37) =     16.38267  eV     1   --> A              
     e( 38 - 38) =     16.65069  eV     1   --> A              
     e( 39 - 39) =     17.19646  eV     1   --> A              
     e( 40 - 40) =     17.39327  eV     1   --> A              

 **************************************************************************

 **************************************************************************

                    xk=(   0.38333,   0.00000,   0.00000  )

     Band symmetry, C_1 (1)     point group:

     e(  1 -  1) =    -14.55327  eV     1   --> A              
     e(  2 -  2) =    -13.95787  eV     1   --> A              
     e(  3 -  3) =     -6.83777  eV     1   --> A              
     e(  4 -  4) =     -5.82753  eV     1   --> A              
     e(  5 -  5) =     -5.45084  eV     1   --> A              
     e(  6 -  6) =     -5.07184  eV     1   --> A              
     e(  7 -  7) =     -3.85894  eV     1   --> A              
     e(  8 -  8) =     -2.84972  eV     1   --> A              
     e(  9 -  9) =     -2.47557  eV     1   --> A              
     e( 10 - 10) =      0.31638  eV     1   --> A              
     e( 11 - 11) =      1.03527  eV     1   --> A              
     e( 12 - 12) =      1.27053  eV     1   --> A              
     e( 13 - 13) =      2.93777  eV     1   --> A              
     e( 14 - 14) =      5.89796  eV     1   --> A              
     e( 15 - 15) =      6.11036  eV     1   --> A              
     e( 16 - 16) =      6.96404  eV     1   --> A              
     e( 17 - 17) =      7.07286  eV     1   --> A              
     e( 18 - 18) =      7.73826  eV     1   --> A              
     e( 19 - 19) =      8.32192  eV     1   --> A              
     e( 20 - 20) =      8.54756  eV     1   --> A              
     e( 21 - 21) =      9.20849  eV     1   --> A              
     e( 22 - 22) =      9.71194  eV     1   --> A              
     e( 23 - 23) =      9.78235  eV     1   --> A              
     e( 24 - 24) =     10.42556  eV     1   --> A              
     e( 25 - 25) =     11.03122  eV     1   --> A              
     e( 26 - 26) =     11.38214  eV     1   --> A              
     e( 27 - 27) =     11.45153  eV     1   --> A              
     e( 28 - 28) =     13.06593  eV     1   --> A              
     e( 29 - 29) =     13.57820  eV     1   --> A              
     e( 30 - 30) =     14.32946  eV     1   --> A              
     e( 31 - 31) =     14.43607  eV     1   --> A              
     e( 32 - 32) =     15.11017  eV     1   --> A              
     e( 33 - 33) =     15.37034  eV     1   --> A              
     e( 34 - 34) =     15.37505  eV     1   --> A              
     e( 35 - 35) =     15.48453  eV     1   --> A              
     e( 36 - 36) =     15.93495  eV     1   --> A              
     e( 37 - 37) =     16.16040  eV     1   --> A              
     e( 38 - 38) =     16.61246  eV     1   --> A              
     e( 39 - 39) =     17.13236  eV     1   --> A              
     e( 40 - 40) =     17.37627  eV     1   --> A              

 **************************************************************************

 **************************************************************************

                    xk=(   0.40000,   0.00000,   0.00000  )

     Band symmetry, C_1 (1)     point group:

     e(  1 -  1) =    -14.46152  eV     1   --> A              
     e(  2 -  2) =    -13.91142  eV     1   --> A              
     e(  3 -  3) =     -6.87442  eV     1   --> A              
     e(  4 -  4) =     -5.97170  eV     1   --> A              
     e(  5 -  5) =     -5.41462  eV     1   --> A              
     e(  6 -  6) =     -5.09161  eV     1   --> A              
     e(  7 -  7) =     -3.96310  eV     1   --> A              
     e(  8 -  8) =     -2.90921  eV     1   --> A              
     e(  9 -  9) =     -2.44941  eV     1   --> A              
     e( 10 - 10) =      0.35983  eV     1   --> A              
     e( 11 - 11) =      1.06426  eV     1   --> A              
     e( 12 - 12) =      1.31637  eV     1   --> A              
     e( 13 - 13) =      2.98862  eV     1   --> A              
     e( 14 - 14) =      6.01507  eV     1   --> A              
     e( 15 - 15) =      6.25888  eV     1   --> A              
     e( 16 - 16) =      6.89564  eV     1   --> A              
     e( 17 - 17) =      7.20377  eV     1   --> A              
     e( 18 - 18) =      7.84027  eV     1   --> A              
     e( 19 - 19) =      8.38372  eV     1   --> A              
     e( 20 - 20) =      8.55434  eV     1   --> A              
     e( 21 - 21) =      9.21300  eV     1   --> A              
     e( 22 - 22) =      9.75495  eV     1   --> A              
     e( 23 - 23) =      9.77380  eV     1   --> A              
     e( 24 - 24) =     10.58073  eV     1   --> A              
     e( 25 - 25) =     11.06259  eV     1   --> A              
     e( 26 - 26) =     11.48982  eV     1   --> A              
     e( 27 - 27) =     11.52869  eV     1   --> A              
     e( 28 - 28) =     12.88077  eV     1   --> A              
     e( 29 - 29) =     13.67728  eV     1   --> A              
     e( 30 - 30) =     14.27105  eV     1   --> A              
     e( 31 - 31) =     14.49113  eV     1   --> A              
     e( 32 - 32) =     14.83023  eV     1   --> A              
     e( 33 - 33) =     15.19495  eV     1   --> A              
     e( 34 - 34) =     15.19780  eV     1   --> A              
     e( 35 - 35) =     15.29255  eV     1   --> A              
     e( 36 - 36) =     15.66172  eV     1   --> A              
     e( 37 - 37) =     16.02761  eV     1   --> A              
     e( 38 - 38) =     16.53471  eV     1   --> A              
     e( 39 - 39) =     16.89789  eV     1   --> A              
     e( 40 - 40) =     17.54690  eV     1   --> A              

 **************************************************************************

 **************************************************************************

                    xk=(   0.41667,  -0.00000,   0.00000  )

     Band symmetry, C_1 (1)     point group:

     e(  1 -  1) =    -14.37167  eV     1   --> A              
     e(  2 -  2) =    -13.86577  eV     1   --> A              
     e(  3 -  3) =     -6.90843  eV     1   --> A              
     e(  4 -  4) =     -6.11304  eV     1   --> A              
     e(  5 -  5) =     -5.37968  eV     1   --> A              
     e(  6 -  6) =     -5.10113  eV     1   --> A              
     e(  7 -  7) =     -4.07552  eV     1   --> A              
     e(  8 -  8) =     -2.97297  eV     1   --> A              
     e(  9 -  9) =     -2.41772  eV     1   --> A              
     e( 10 - 10) =      0.41442  eV     1   --> A              
     e( 11 - 11) =      1.09355  eV     1   --> A              
     e( 12 - 12) =      1.35885  eV     1   --> A              
     e( 13 - 13) =      3.03617  eV     1   --> A              
     e( 14 - 14) =      6.10634  eV     1   --> A              
     e( 15 - 15) =      6.40791  eV     1   --> A              
     e( 16 - 16) =      6.80959  eV     1   --> A              
     e( 17 - 17) =      7.37875  eV     1   --> A              
     e( 18 - 18) =      7.93512  eV     1   --> A              
     e( 19 - 19) =      8.47557  eV     1   --> A              
     e( 20 - 20) =      8.47781  eV     1   --> A              
     e( 21 - 21) =      9.26610  eV     1   --> A              
     e( 22 - 22) =      9.77704  eV     1   --> A              
     e( 23 - 23) =      9.84510  eV     1   --> A              
     e( 24 - 24) =     10.74913  eV     1   --> A              
     e( 25 - 25) =     11.08629  eV     1   --> A              
     e( 26 - 26) =     11.53166  eV     1   --> A              
     e( 27 - 27) =     11.68620  eV     1   --> A              
     e( 28 - 28) =     12.68491  eV     1   --> A              
     e( 29 - 29) =     13.71006  eV     1   --> A              
     e( 30 - 30) =     14.19859  eV     1   --> A              
     e( 31 - 31) =     14.44875  eV     1   --> A              
     e( 32 - 32) =     14.56728  eV     1   --> A              
     e( 33 - 33) =     15.00322  eV     1   --> A              
     e( 34 - 34) =     15.06390  eV     1   --> A              
     e( 35 - 35) =     15.12139  eV     1   --> A              
     e( 36 - 36) =     15.39472  eV     1   --> A              
     e( 37 - 37) =     15.99163  eV     1   --> A              
     e( 38 - 38) =     16.39758  eV     1   --> A              
     e( 39 - 39) =     16.69523  eV     1   --> A              
     e( 40 - 40) =     17.36131  eV     1   --> A              

 **************************************************************************

 **************************************************************************

                    xk=(   0.43333,   0.00000,   0.00000  )

     Band symmetry, C_1 (1)     point group:

     e(  1 -  1) =    -14.28448  eV     1   --> A              
     e(  2 -  2) =    -13.82125  eV     1   --> A              
     e(  3 -  3) =     -6.93739  eV     1   --> A              
     e(  4 -  4) =     -6.24987  eV     1   --> A              
     e(  5 -  5) =     -5.34856  eV     1   --> A              
     e(  6 -  6) =     -5.10142  eV     1   --> A              
     e(  7 -  7) =     -4.19371  eV     1   --> A              
     e(  8 -  8) =     -3.04044  eV     1   --> A              
     e(  9 -  9) =     -2.38087  eV     1   --> A              
     e( 10 - 10) =      0.47537  eV     1   --> A              
     e( 11 - 11) =      1.12432  eV     1   --> A              
     e( 12 - 12) =      1.39641  eV     1   --> A              
     e( 13 - 13) =      3.08183  eV     1   --> A              
     e( 14 - 14) =      6.14892  eV     1   --> A              
     e( 15 - 15) =      6.55642  eV     1   --> A              
     e( 16 - 16) =      6.76545  eV     1   --> A              
     e( 17 - 17) =      7.55281  eV     1   --> A              
     e( 18 - 18) =      8.02742  eV     1   --> A              
     e( 19 - 19) =      8.35860  eV     1   --> A              
     e( 20 - 20) =      8.59288  eV     1   --> A              
     e( 21 - 21) =      9.37274  eV     1   --> A              
     e( 22 - 22) =      9.82107  eV     1   --> A              
     e( 23 - 23) =      9.92517  eV     1   --> A              
     e( 24 - 24) =     10.91821  eV     1   --> A              
     e( 25 - 25) =     11.10721  eV     1   --> A              
     e( 26 - 26) =     11.58300  eV     1   --> A              
     e( 27 - 27) =     11.84714  eV     1   --> A              
     e( 28 - 28) =     12.48578  eV     1   --> A              
     e( 29 - 29) =     13.63137  eV     1   --> A              
     e( 30 - 30) =     14.13286  eV     1   --> A              
     e( 31 - 31) =     14.30498  eV     1   --> A              
     e( 32 - 32) =     14.37136  eV     1   --> A              
     e( 33 - 33) =     14.78794  eV     1   --> A              
     e( 34 - 34) =     14.85021  eV     1   --> A              
     e( 35 - 35) =     15.11043  eV     1   --> A              
     e( 36 - 36) =     15.13731  eV     1   --> A              
     e( 37 - 37) =     16.00058  eV     1   --> A              
     e( 38 - 38) =     16.22540  eV     1   --> A              
     e( 39 - 39) =     16.51358  eV     1   --> A              
     e( 40 - 40) =     17.12820  eV     1   --> A              

 **************************************************************************

 **************************************************************************

                    xk=(   0.45000,   0.00000,   0.00000  )

     Band symmetry, C_1 (1)     point group:

     e(  1 -  1) =    -14.20068  eV     1   --> A              
     e(  2 -  2) =    -13.77821  eV     1   --> A              
     e(  3 -  3) =     -6.95934  eV     1   --> A              
     e(  4 -  4) =     -6.38090  eV     1   --> A              
     e(  5 -  5) =     -5.32319  eV     1   --> A              
     e(  6 -  6) =     -5.09332  eV     1   --> A              
     e(  7 -  7) =     -4.31574  eV     1   --> A              
     e(  8 -  8) =     -3.11103  eV     1   --> A              
     e(  9 -  9) =     -2.33873  eV     1   --> A              
     e( 10 - 10) =      0.53560  eV     1   --> A              
     e( 11 - 11) =      1.15982  eV     1   --> A              
     e( 12 - 12) =      1.42767  eV     1   --> A              
     e( 13 - 13) =      3.12705  eV     1   --> A              
     e( 14 - 14) =      6.12786  eV     1   --> A              
     e( 15 - 15) =      6.70325  eV     1   --> A              
     e( 16 - 16) =      6.77537  eV     1   --> A              
     e( 17 - 17) =      7.70416  eV     1   --> A              
     e( 18 - 18) =      8.12279  eV     1   --> A              
     e( 19 - 19) =      8.26172  eV     1   --> A              
     e( 20 - 20) =      8.72982  eV     1   --> A              
     e( 21 - 21) =      9.51123  eV     1   --> A              
     e( 22 - 22) =      9.87490  eV     1   --> A              
     e( 23 - 23) =     10.01205  eV     1   --> A              
     e( 24 - 24) =     11.07340  eV     1   --> A              
     e( 25 - 25) =     11.12848  eV     1   --> A              
     e( 26 - 26) =     11.65387  eV     1   --> A              
     e( 27 - 27) =     11.99969  eV     1   --> A              
     e( 28 - 28) =     12.29550  eV     1   --> A              
     e( 29 - 29) =     13.47004  eV     1   --> A              
     e( 30 - 30) =     13.94814  eV     1   --> A              
     e( 31 - 31) =     14.11334  eV     1   --> A              
     e( 32 - 32) =     14.32508  eV     1   --> A              
     e( 33 - 33) =     14.59373  eV     1   --> A              
[...]
     e( 35 - 35) =     17.50460  eV     1   --> A              
     e( 36 - 36) =     17.59829  eV     1   --> A              
     e( 37 - 37) =     18.96991  eV     1   --> A              
     e( 38 - 38) =     19.53376  eV     1   --> A              
     e( 39 - 39) =     19.70052  eV     1   --> A              
     e( 40 - 40) =     19.97237  eV     1   --> A              

 **************************************************************************

 **************************************************************************

                    xk=(   0.10000,   0.05774,   0.00000  )

     Band symmetry, C_1 (1)     point group:

     e(  1 -  1) =    -15.79274  eV     1   --> A              
     e(  2 -  2) =    -14.58268  eV     1   --> A              
     e(  3 -  3) =     -7.27890  eV     1   --> A              
     e(  4 -  4) =     -4.63480  eV     1   --> A              
     e(  5 -  5) =     -4.14148  eV     1   --> A              
     e(  6 -  6) =     -4.10496  eV     1   --> A              
     e(  7 -  7) =     -3.34915  eV     1   --> A              
     e(  8 -  8) =     -2.76554  eV     1   --> A              
     e(  9 -  9) =     -1.88374  eV     1   --> A              
     e( 10 - 10) =      1.09572  eV     1   --> A              
     e( 11 - 11) =      1.12543  eV     1   --> A              
     e( 12 - 12) =      1.36262  eV     1   --> A              
     e( 13 - 13) =      1.59549  eV     1   --> A              
     e( 14 - 14) =      4.15216  eV     1   --> A              
     e( 15 - 15) =      4.32636  eV     1   --> A              
     e( 16 - 16) =      5.07003  eV     1   --> A              
     e( 17 - 17) =      5.91741  eV     1   --> A              
     e( 18 - 18) =      6.12801  eV     1   --> A              
     e( 19 - 19) =      7.27620  eV     1   --> A              
     e( 20 - 20) =      8.14391  eV     1   --> A              
     e( 21 - 21) =      8.80926  eV     1   --> A              
     e( 22 - 22) =      8.87335  eV     1   --> A              
     e( 23 - 23) =      9.80300  eV     1   --> A              
     e( 24 - 24) =     10.28892  eV     1   --> A              
     e( 25 - 25) =     10.55028  eV     1   --> A              
     e( 26 - 26) =     11.50677  eV     1   --> A              
     e( 27 - 27) =     11.59920  eV     1   --> A              
     e( 28 - 28) =     12.60097  eV     1   --> A              
     e( 29 - 29) =     13.80596  eV     1   --> A              
     e( 30 - 30) =     13.98144  eV     1   --> A              
     e( 31 - 31) =     14.56234  eV     1   --> A              
     e( 32 - 32) =     15.10119  eV     1   --> A              
     e( 33 - 33) =     15.36946  eV     1   --> A              
     e( 34 - 34) =     16.50484  eV     1   --> A              
     e( 35 - 35) =     17.37429  eV     1   --> A              
     e( 36 - 36) =     17.41551  eV     1   --> A              
     e( 37 - 37) =     19.00422  eV     1   --> A              
     e( 38 - 38) =     19.18587  eV     1   --> A              
     e( 39 - 39) =     20.21729  eV     1   --> A              
     e( 40 - 40) =     20.33958  eV     1   --> A              

 **************************************************************************

 **************************************************************************

                    xk=(   0.08333,   0.04811,   0.00000  )

     Band symmetry, C_1 (1)     point group:

     e(  1 -  1) =    -15.83865  eV     1   --> A              
     e(  2 -  2) =    -14.60595  eV     1   --> A              
     e(  3 -  3) =     -7.32987  eV     1   --> A              
     e(  4 -  4) =     -4.54203  eV     1   --> A              
     e(  5 -  5) =     -4.19208  eV     1   --> A              
     e(  6 -  6) =     -3.97767  eV     1   --> A              
     e(  7 -  7) =     -3.27986  eV     1   --> A              
     e(  8 -  8) =     -2.81429  eV     1   --> A              
     e(  9 -  9) =     -1.86162  eV     1   --> A              
     e( 10 - 10) =      1.17156  eV     1   --> A              
     e( 11 - 11) =      1.20752  eV     1   --> A              
     e( 12 - 12) =      1.41161  eV     1   --> A              
     e( 13 - 13) =      1.52297  eV     1   --> A              
     e( 14 - 14) =      4.08044  eV     1   --> A              
     e( 15 - 15) =      4.26549  eV     1   --> A              
     e( 16 - 16) =      4.99620  eV     1   --> A              
     e( 17 - 17) =      5.74538  eV     1   --> A              
     e( 18 - 18) =      6.06971  eV     1   --> A              
     e( 19 - 19) =      7.21431  eV     1   --> A              
     e( 20 - 20) =      7.96050  eV     1   --> A              
     e( 21 - 21) =      8.82566  eV     1   --> A              
     e( 22 - 22) =      8.93055  eV     1   --> A              
     e( 23 - 23) =      9.66335  eV     1   --> A              
     e( 24 - 24) =     10.21858  eV     1   --> A              
     e( 25 - 25) =     10.77594  eV     1   --> A              
     e( 26 - 26) =     11.54736  eV     1   --> A              
     e( 27 - 27) =     11.57353  eV     1   --> A              
     e( 28 - 28) =     12.57511  eV     1   --> A              
     e( 29 - 29) =     13.83968  eV     1   --> A              
     e( 30 - 30) =     14.21478  eV     1   --> A              
     e( 31 - 31) =     14.71412  eV     1   --> A              
     e( 32 - 32) =     15.08579  eV     1   --> A              
     e( 33 - 33) =     15.29768  eV     1   --> A              
     e( 34 - 34) =     16.17541  eV     1   --> A              
     e( 35 - 35) =     17.25384  eV     1   --> A              
     e( 36 - 36) =     17.27875  eV     1   --> A              
     e( 37 - 37) =     18.82165  eV     1   --> A              
     e( 38 - 38) =     19.00144  eV     1   --> A              
     e( 39 - 39) =     20.61309  eV     1   --> A              
     e( 40 - 40) =     20.76091  eV     1   --> A              

 **************************************************************************

 **************************************************************************

                    xk=(   0.06667,   0.03849,   0.00000  )

     Band symmetry, C_1 (1)     point group:

     e(  1 -  1) =    -15.87656  eV     1   --> A              
     e(  2 -  2) =    -14.62517  eV     1   --> A              
     e(  3 -  3) =     -7.37285  eV     1   --> A              
     e(  4 -  4) =     -4.46203  eV     1   --> A              
     e(  5 -  5) =     -4.23405  eV     1   --> A              
     e(  6 -  6) =     -3.85476  eV     1   --> A              
     e(  7 -  7) =     -3.22015  eV     1   --> A              
     e(  8 -  8) =     -2.87587  eV     1   --> A              
     e(  9 -  9) =     -1.84591  eV     1   --> A              
     e( 10 - 10) =      1.22084  eV     1   --> A              
     e( 11 - 11) =      1.31200  eV     1   --> A              
     e( 12 - 12) =      1.45387  eV     1   --> A              
     e( 13 - 13) =      1.46002  eV     1   --> A              
     e( 14 - 14) =      4.01719  eV     1   --> A              
     e( 15 - 15) =      4.21526  eV     1   --> A              
     e( 16 - 16) =      4.93040  eV     1   --> A              
     e( 17 - 17) =      5.59996  eV     1   --> A              
     e( 18 - 18) =      6.02165  eV     1   --> A              
     e( 19 - 19) =      7.16387  eV     1   --> A              
     e( 20 - 20) =      7.79418  eV     1   --> A              
     e( 21 - 21) =      8.78531  eV     1   --> A              
     e( 22 - 22) =      9.04785  eV     1   --> A              
     e( 23 - 23) =      9.54614  eV     1   --> A              
     e( 24 - 24) =     10.15019  eV     1   --> A              
     e( 25 - 25) =     10.99975  eV     1   --> A              
     e( 26 - 26) =     11.55468  eV     1   --> A              
     e( 27 - 27) =     11.57082  eV     1   --> A              
     e( 28 - 28) =     12.54584  eV     1   --> A              
     e( 29 - 29) =     13.86457  eV     1   --> A              
     e( 30 - 30) =     14.45940  eV     1   --> A              
     e( 31 - 31) =     14.84585  eV     1   --> A              
     e( 32 - 32) =     15.08225  eV     1   --> A              
     e( 33 - 33) =     15.23619  eV     1   --> A              
     e( 34 - 34) =     15.86555  eV     1   --> A              
     e( 35 - 35) =     17.11709  eV     1   --> A              
     e( 36 - 36) =     17.20316  eV     1   --> A              
     e( 37 - 37) =     18.47490  eV     1   --> A              
     e( 38 - 38) =     18.98908  eV     1   --> A              
     e( 39 - 39) =     20.78676  eV     1   --> A              
     e( 40 - 40) =     21.31094  eV     1   --> A              

 **************************************************************************

 **************************************************************************

                    xk=(   0.05000,   0.02887,   0.00000  )

     Band symmetry, C_1 (1)     point group:

     e(  1 -  1) =    -15.90626  eV     1   --> A              
     e(  2 -  2) =    -14.64024  eV     1   --> A              
     e(  3 -  3) =     -7.40704  eV     1   --> A              
     e(  4 -  4) =     -4.39710  eV     1   --> A              
     e(  5 -  5) =     -4.26705  eV     1   --> A              
     e(  6 -  6) =     -3.73874  eV     1   --> A              
     e(  7 -  7) =     -3.17165  eV     1   --> A              
     e(  8 -  8) =     -2.94621  eV     1   --> A              
     e(  9 -  9) =     -1.83523  eV     1   --> A              
     e( 10 - 10) =      1.26737  eV     1   --> A              
     e( 11 - 11) =      1.40279  eV     1   --> A              
     e( 12 - 12) =      1.40863  eV     1   --> A              
     e( 13 - 13) =      1.48818  eV     1   --> A              
     e( 14 - 14) =      3.96398  eV     1   --> A              
     e( 15 - 15) =      4.17589  eV     1   --> A              
     e( 16 - 16) =      4.87424  eV     1   --> A              
     e( 17 - 17) =      5.48565  eV     1   --> A              
     e( 18 - 18) =      5.98404  eV     1   --> A              
     e( 19 - 19) =      7.12457  eV     1   --> A              
     e( 20 - 20) =      7.65505  eV     1   --> A              
     e( 21 - 21) =      8.75310  eV     1   --> A              
     e( 22 - 22) =      9.15551  eV     1   --> A              
     e( 23 - 23) =      9.45311  eV     1   --> A              
     e( 24 - 24) =     10.08612  eV     1   --> A              
     e( 25 - 25) =     11.20504  eV     1   --> A              
     e( 26 - 26) =     11.54148  eV     1   --> A              
     e( 27 - 27) =     11.58092  eV     1   --> A              
     e( 28 - 28) =     12.51845  eV     1   --> A              
     e( 29 - 29) =     13.88200  eV     1   --> A              
     e( 30 - 30) =     14.69797  eV     1   --> A              
     e( 31 - 31) =     14.95356  eV     1   --> A              
     e( 32 - 32) =     15.08591  eV     1   --> A              
     e( 33 - 33) =     15.18656  eV     1   --> A              
     e( 34 - 34) =     15.59410  eV     1   --> A              
     e( 35 - 35) =     17.00827  eV     1   --> A              
     e( 36 - 36) =     17.13965  eV     1   --> A              
     e( 37 - 37) =     18.16490  eV     1   --> A              
     e( 38 - 38) =     18.97664  eV     1   --> A              
     e( 39 - 39) =     20.91213  eV     1   --> A              
     e( 40 - 40) =     21.24386  eV     1   --> A              

 **************************************************************************

 **************************************************************************

                    xk=(   0.03333,   0.01925,   0.00000  )

     Band symmetry, C_1 (1)     point group:

     e(  1 -  1) =    -15.92758  eV     1   --> A              
     e(  2 -  2) =    -14.65106  eV     1   --> A              
     e(  3 -  3) =     -7.43184  eV     1   --> A              
     e(  4 -  4) =     -4.34919  eV     1   --> A              
     e(  5 -  5) =     -4.29080  eV     1   --> A              
     e(  6 -  6) =     -3.63486  eV     1   --> A              
     e(  7 -  7) =     -3.13581  eV     1   --> A              
     e(  8 -  8) =     -3.01865  eV     1   --> A              
     e(  9 -  9) =     -1.82844  eV     1   --> A              
     e( 10 - 10) =      1.30548  eV     1   --> A              
     e( 11 - 11) =      1.37054  eV     1   --> A              
     e( 12 - 12) =      1.47358  eV     1   --> A              
     e( 13 - 13) =      1.51352  eV     1   --> A              
     e( 14 - 14) =      3.92303  eV     1   --> A              
     e( 15 - 15) =      4.14759  eV     1   --> A              
     e( 16 - 16) =      4.83045  eV     1   --> A              
     e( 17 - 17) =      5.40443  eV     1   --> A              
     e( 18 - 18) =      5.95704  eV     1   --> A              
     e( 19 - 19) =      7.09638  eV     1   --> A              
     e( 20 - 20) =      7.55040  eV     1   --> A              
     e( 21 - 21) =      8.72966  eV     1   --> A              
     e( 22 - 22) =      9.24584  eV     1   --> A              
     e( 23 - 23) =      9.38565  eV     1   --> A              
     e( 24 - 24) =     10.03046  eV     1   --> A              
     e( 25 - 25) =     11.37380  eV     1   --> A              
     e( 26 - 26) =     11.53290  eV     1   --> A              
     e( 27 - 27) =     11.58278  eV     1   --> A              
     e( 28 - 28) =     12.49610  eV     1   --> A              
     e( 29 - 29) =     13.89333  eV     1   --> A              
     e( 30 - 30) =     14.90830  eV     1   --> A              
     e( 31 - 31) =     15.03362  eV     1   --> A              
     e( 32 - 32) =     15.09225  eV     1   --> A              
     e( 33 - 33) =     15.15010  eV     1   --> A              
     e( 34 - 34) =     15.37907  eV     1   --> A              
     e( 35 - 35) =     16.92941  eV     1   --> A              
     e( 36 - 36) =     17.08416  eV     1   --> A              
     e( 37 - 37) =     17.91523  eV     1   --> A              
     e( 38 - 38) =     18.96721  eV     1   --> A              
     e( 39 - 39) =     21.01015  eV     1   --> A              
     e( 40 - 40) =     21.16730  eV     1   --> A              

 **************************************************************************

 **************************************************************************

                    xk=(   0.01667,   0.00962,   0.00000  )

     Band symmetry, C_1 (1)     point group:

     e(  1 -  1) =    -15.94042  eV     1   --> A              
     e(  2 -  2) =    -14.65757  eV     1   --> A              
     e(  3 -  3) =     -7.44688  eV     1   --> A              
     e(  4 -  4) =     -4.31982  eV     1   --> A              
     e(  5 -  5) =     -4.30513  eV     1   --> A              
     e(  6 -  6) =     -3.55503  eV     1   --> A              
     e(  7 -  7) =     -3.11381  eV     1   --> A              
     e(  8 -  8) =     -3.08010  eV     1   --> A              
     e(  9 -  9) =     -1.82470  eV     1   --> A              
     e( 10 - 10) =      1.33047  eV     1   --> A              
     e( 11 - 11) =      1.34709  eV     1   --> A              
     e( 12 - 12) =      1.51874  eV     1   --> A              
     e( 13 - 13) =      1.52905  eV     1   --> A              
     e( 14 - 14) =      3.89696  eV     1   --> A              
     e( 15 - 15) =      4.13053  eV     1   --> A              
     e( 16 - 16) =      4.80234  eV     1   --> A              
     e( 17 - 17) =      5.35626  eV     1   --> A              
     e( 18 - 18) =      5.94078  eV     1   --> A              
     e( 19 - 19) =      7.07940  eV     1   --> A              
     e( 20 - 20) =      7.48546  eV     1   --> A              
     e( 21 - 21) =      8.71544  eV     1   --> A              
     e( 22 - 22) =      9.30828  eV     1   --> A              
     e( 23 - 23) =      9.34475  eV     1   --> A              
     e( 24 - 24) =      9.99042  eV     1   --> A              
     e( 25 - 25) =     11.48660  eV     1   --> A              
     e( 26 - 26) =     11.52810  eV     1   --> A              
     e( 27 - 27) =     11.58141  eV     1   --> A              
     e( 28 - 28) =     12.48122  eV     1   --> A              
     e( 29 - 29) =     13.89967  eV     1   --> A              
     e( 30 - 30) =     15.06029  eV     1   --> A              
     e( 31 - 31) =     15.08300  eV     1   --> A              
     e( 32 - 32) =     15.09760  eV     1   --> A              
     e( 33 - 33) =     15.12781  eV     1   --> A              
     e( 34 - 34) =     15.23810  eV     1   --> A              
     e( 35 - 35) =     16.88171  eV     1   --> A              
     e( 36 - 36) =     17.03970  eV     1   --> A              
     e( 37 - 37) =     17.75263  eV     1   --> A              
     e( 38 - 38) =     18.96156  eV     1   --> A              
     e( 39 - 39) =     21.07754  eV     1   --> A              
     e( 40 - 40) =     21.11880  eV     1   --> A              

 **************************************************************************

 **************************************************************************

                    xk=(   0.00000,   0.00000,   0.00000  )

     Band symmetry, C_1 (1)     point group:

     e(  1 -  1) =    -15.94471  eV     1   --> A              
     e(  2 -  2) =    -14.65974  eV     1   --> A              
     e(  3 -  3) =     -7.45192  eV     1   --> A              
     e(  4 -  5) =     -4.30991  eV     2   -->   2 A              
     e(  6 -  6) =     -3.52270  eV     1   --> A              
     e(  7 -  8) =     -3.10638  eV     2   -->   2 A              
     e(  9 -  9) =     -1.82350  eV     1   --> A              
     e( 10 - 11) =      1.33919  eV     2   -->   2 A              
     e( 12 - 13) =      1.53429  eV     2   -->   2 A              
     e( 14 - 14) =      3.88798  eV     1   --> A              
     e( 15 - 15) =      4.12483  eV     1   --> A              
     e( 16 - 16) =      4.79262  eV     1   --> A              
     e( 17 - 17) =      5.34035  eV     1   --> A              
     e( 18 - 18) =      5.93536  eV     1   --> A              
     e( 19 - 19) =      7.07373  eV     1   --> A              
     e( 20 - 20) =      7.46346  eV     1   --> A              
     e( 21 - 21) =      8.71068  eV     1   --> A              
     e( 22 - 23) =      9.33105  eV     2   -->   2 A              
     e( 24 - 24) =      9.97542  eV     1   --> A              
     e( 25 - 26) =     11.52657  eV     2   -->   2 A              
     e( 27 - 27) =     11.58051  eV     1   --> A              
     e( 28 - 28) =     12.47592  eV     1   --> A              
     e( 29 - 29) =     13.90170  eV     1   --> A              
     e( 30 - 31) =     15.09971  eV     2   -->   2 A              
     e( 32 - 33) =     15.12031  eV     2   -->   2 A              
     e( 34 - 34) =     15.18537  eV     1   --> A              
     e( 35 - 35) =     16.86576  eV     1   --> A              
     e( 36 - 36) =     17.02115  eV     1   --> A              
     e( 37 - 37) =     17.69653  eV     1   --> A              
     e( 38 - 38) =     18.95969  eV     1   --> A              
     e( 39 - 40) =     21.10222  eV     2   -->   2 A              

 **************************************************************************
 
     BANDS        :      2.28s CPU      2.62s WALL

 
   This run was terminated on:  22:29:10  12Jun2026            

=------------------------------------------------------------------------------=
   JOB DONE.
=------------------------------------------------------------------------------=
