
     Program PWSCF v.6.7MaX starts on 12Jun2026 at 22:28:29 

     This program is part of the open-source Quantum ESPRESSO suite
     for quantum simulation of materials; please cite
         "P. Giannozzi et al., J. Phys.:Condens. Matter 21 395502 (2009);
         "P. Giannozzi et al., J. Phys.:Condens. Matter 29 465901 (2017);
          URL http://www.quantum-espresso.org", 
     in publications or presentations arising from this work. More details at
     http://www.quantum-espresso.org/quote

     Parallel version (MPI), running on    32 processors

     MPI processes distributed on     1 nodes
     R & G space division:  proc/nbgrp/npool/nimage =      32
     Waiting for input...
     Reading input from standard input

     Current dimensions of program PWSCF are:
     Max number of different atomic species (ntypx) = 10
     Max number of k-points (npk) =  40000
     Max angular momentum in pseudopotentials (lmaxx) =  3

     Atomic positions and unit cell read from directory:
     ./tmp/mos2.save/
     Atomic positions from file used, from input discarded
 

     Subspace diagonalization in iterative solution of the eigenvalue problem:
     a serial algorithm will be used

 
     Parallelization info
     --------------------
     sticks:   dense  smooth     PW     G-vecs:    dense   smooth      PW
     Min          24      24      6                 3466     3466     522
     Max          25      25      7                 3491     3491     559
     Sum         769     769    223               111239   111239   17391
 


     bravais-lattice index     =            4
     lattice parameter (alat)  =       5.9296  a.u.
     unit-cell volume          =    1150.8250 (a.u.)^3
     number of atoms/cell      =            3
     number of atomic types    =            2
     number of electrons       =        18.00
     number of Kohn-Sham states=           40
     kinetic-energy cutoff     =      80.0000  Ry
     charge density cutoff     =     320.0000  Ry
     Exchange-correlation= SLA-PZ-NOGX-NOGC
                           (   1   1   0   0   0   0   0)

     celldm(1)=   5.929593  celldm(2)=   0.000000  celldm(3)=   6.373881
     celldm(4)=   0.000000  celldm(5)=   0.000000  celldm(6)=   0.000000

     crystal axes: (cart. coord. in units of alat)
               a(1) = (   1.000000   0.000000   0.000000 )  
               a(2) = (  -0.500000   0.866025   0.000000 )  
               a(3) = (   0.000000   0.000000   6.373881 )  

     reciprocal axes: (cart. coord. in units 2 pi/alat)
               b(1) = (  1.000000  0.577350  0.000000 )  
               b(2) = (  0.000000  1.154701  0.000000 )  
               b(3) = (  0.000000  0.000000  0.156890 )  


     PseudoPot. # 1 for Mo read from file:
     /public3/home/a2s002871/MoS2/pseudo/Mo.pz-hgh.UPF
     MD5 check sum: ddacfae2313397baf1b67b06fa6affd0
     Pseudo is Norm-conserving, Zval =  6.0
     Generated in analytical, separable form
     Using radial grid of 1229 points,  6 beta functions with: 
                l(1) =   0
                l(2) =   0
                l(3) =   1
                l(4) =   1
                l(5) =   2
                l(6) =   2

     PseudoPot. # 2 for S  read from file:
     /public3/home/a2s002871/MoS2/pseudo/S.pz-hgh.UPF
     MD5 check sum: 38f9f902ee430b58f9df3cf2bf519617
     Pseudo is Norm-conserving, Zval =  6.0
     Generated in analytical, separable form
     Using radial grid of 1151 points,  3 beta functions with: 
                l(1) =   0
                l(2) =   0
                l(3) =   1

     atomic species   valence    mass     pseudopotential
        Mo             6.00    95.94000     Mo( 1.00)
        S              6.00    32.06500     S ( 1.00)

     No symmetry found



   Cartesian axes

     site n.     atom                  positions (alat units)
         1           Mo  tau(   1) = (   0.0000000   0.0000000   3.1869406  )
         2           S   tau(   2) = (  -0.0000000   0.5773503   2.6888676  )
         3           S   tau(   3) = (  -0.0000000   0.5773503   3.6850130  )

     number of k points=    91
                       cart. coord. in units 2pi/alat
        k(    1) = (   0.0000000   0.0000000   0.0000000), wk =   0.0219780
        k(    2) = (   0.0166667   0.0000000   0.0000000), wk =   0.0219780
        k(    3) = (   0.0333333   0.0000000   0.0000000), wk =   0.0219780
        k(    4) = (   0.0500000   0.0000000   0.0000000), wk =   0.0219780
        k(    5) = (   0.0666667   0.0000000   0.0000000), wk =   0.0219780
        k(    6) = (   0.0833333  -0.0000000   0.0000000), wk =   0.0219780
        k(    7) = (   0.1000000   0.0000000   0.0000000), wk =   0.0219780
        k(    8) = (   0.1166667  -0.0000000   0.0000000), wk =   0.0219780
        k(    9) = (   0.1333333   0.0000000   0.0000000), wk =   0.0219780
        k(   10) = (   0.1500000   0.0000000   0.0000000), wk =   0.0219780
        k(   11) = (   0.1666667  -0.0000000   0.0000000), wk =   0.0219780
        k(   12) = (   0.1833333  -0.0000000   0.0000000), wk =   0.0219780
        k(   13) = (   0.2000000   0.0000000   0.0000000), wk =   0.0219780
        k(   14) = (   0.2166667   0.0000000   0.0000000), wk =   0.0219780
        k(   15) = (   0.2333333  -0.0000000   0.0000000), wk =   0.0219780
        k(   16) = (   0.2500000   0.0000000   0.0000000), wk =   0.0219780
        k(   17) = (   0.2666667   0.0000000   0.0000000), wk =   0.0219780
        k(   18) = (   0.2833333  -0.0000000   0.0000000), wk =   0.0219780
        k(   19) = (   0.3000000   0.0000000   0.0000000), wk =   0.0219780
        k(   20) = (   0.3166667   0.0000000   0.0000000), wk =   0.0219780
        k(   21) = (   0.3333333  -0.0000000   0.0000000), wk =   0.0219780
        k(   22) = (   0.3500000  -0.0000000   0.0000000), wk =   0.0219780
        k(   23) = (   0.3666667  -0.0000000   0.0000000), wk =   0.0219780
        k(   24) = (   0.3833333   0.0000000   0.0000000), wk =   0.0219780
        k(   25) = (   0.4000000   0.0000000   0.0000000), wk =   0.0219780
        k(   26) = (   0.4166667  -0.0000000   0.0000000), wk =   0.0219780
        k(   27) = (   0.4333333   0.0000000   0.0000000), wk =   0.0219780
        k(   28) = (   0.4500000   0.0000000   0.0000000), wk =   0.0219780
        k(   29) = (   0.4666667  -0.0000000   0.0000000), wk =   0.0219780
        k(   30) = (   0.4833333  -0.0000000   0.0000000), wk =   0.0219780
        k(   31) = (   0.5000000   0.0000000   0.0000000), wk =   0.0219780
        k(   32) = (   0.5166667   0.0000000   0.0000000), wk =   0.0219780
        k(   33) = (   0.5333333   0.0000000   0.0000000), wk =   0.0219780
        k(   34) = (   0.5500000  -0.0000000   0.0000000), wk =   0.0219780
        k(   35) = (   0.5666667  -0.0000000   0.0000000), wk =   0.0219780
        k(   36) = (   0.5833333  -0.0000000   0.0000000), wk =   0.0219780
        k(   37) = (   0.6000000   0.0000000   0.0000000), wk =   0.0219780
        k(   38) = (   0.6166667   0.0000000   0.0000000), wk =   0.0219780
        k(   39) = (   0.6333333   0.0000000   0.0000000), wk =   0.0219780
        k(   40) = (   0.6500000   0.0000000   0.0000000), wk =   0.0219780
        k(   41) = (   0.6666667  -0.0000000   0.0000000), wk =   0.0219780
        k(   42) = (   0.6583333   0.0144338   0.0000000), wk =   0.0219780
        k(   43) = (   0.6500000   0.0288675   0.0000000), wk =   0.0219780
        k(   44) = (   0.6416667   0.0433013   0.0000000), wk =   0.0219780
        k(   45) = (   0.6333333   0.0577350   0.0000000), wk =   0.0219780
        k(   46) = (   0.6250000   0.0721688   0.0000000), wk =   0.0219780
        k(   47) = (   0.6166667   0.0866025   0.0000000), wk =   0.0219780
        k(   48) = (   0.6083333   0.1010363   0.0000000), wk =   0.0219780
        k(   49) = (   0.6000000   0.1154701   0.0000000), wk =   0.0219780
        k(   50) = (   0.5916667   0.1299038   0.0000000), wk =   0.0219780
        k(   51) = (   0.5833333   0.1443376   0.0000000), wk =   0.0219780
        k(   52) = (   0.5750000   0.1587713   0.0000000), wk =   0.0219780
        k(   53) = (   0.5666667   0.1732051   0.0000000), wk =   0.0219780
        k(   54) = (   0.5583333   0.1876388   0.0000000), wk =   0.0219780
        k(   55) = (   0.5500000   0.2020726   0.0000000), wk =   0.0219780
        k(   56) = (   0.5416667   0.2165064   0.0000000), wk =   0.0219780
        k(   57) = (   0.5333333   0.2309401   0.0000000), wk =   0.0219780
        k(   58) = (   0.5250000   0.2453739   0.0000000), wk =   0.0219780
        k(   59) = (   0.5166667   0.2598076   0.0000000), wk =   0.0219780
        k(   60) = (   0.5083333   0.2742414   0.0000000), wk =   0.0219780
        k(   61) = (   0.5000000   0.2886751   0.0000000), wk =   0.0219780
        k(   62) = (   0.4833333   0.2790526   0.0000000), wk =   0.0219780
        k(   63) = (   0.4666667   0.2694301   0.0000000), wk =   0.0219780
        k(   64) = (   0.4500000   0.2598076   0.0000000), wk =   0.0219780
        k(   65) = (   0.4333333   0.2501851   0.0000000), wk =   0.0219780
        k(   66) = (   0.4166667   0.2405626   0.0000000), wk =   0.0219780
        k(   67) = (   0.4000000   0.2309401   0.0000000), wk =   0.0219780
        k(   68) = (   0.3833333   0.2213176   0.0000000), wk =   0.0219780
        k(   69) = (   0.3666667   0.2116951   0.0000000), wk =   0.0219780
        k(   70) = (   0.3500000   0.2020726   0.0000000), wk =   0.0219780
        k(   71) = (   0.3333333   0.1924501   0.0000000), wk =   0.0219780
        k(   72) = (   0.3166667   0.1828276   0.0000000), wk =   0.0219780
        k(   73) = (   0.3000000   0.1732051   0.0000000), wk =   0.0219780
        k(   74) = (   0.2833333   0.1635826   0.0000000), wk =   0.0219780
        k(   75) = (   0.2666667   0.1539601   0.0000000), wk =   0.0219780
        k(   76) = (   0.2500000   0.1443376   0.0000000), wk =   0.0219780
        k(   77) = (   0.2333333   0.1347151   0.0000000), wk =   0.0219780
        k(   78) = (   0.2166667   0.1250926   0.0000000), wk =   0.0219780
        k(   79) = (   0.2000000   0.1154701   0.0000000), wk =   0.0219780
        k(   80) = (   0.1833333   0.1058475   0.0000000), wk =   0.0219780
        k(   81) = (   0.1666667   0.0962250   0.0000000), wk =   0.0219780
        k(   82) = (   0.1500000   0.0866025   0.0000000), wk =   0.0219780
        k(   83) = (   0.1333333   0.0769800   0.0000000), wk =   0.0219780
        k(   84) = (   0.1166667   0.0673575   0.0000000), wk =   0.0219780
        k(   85) = (   0.1000000   0.0577350   0.0000000), wk =   0.0219780
        k(   86) = (   0.0833333   0.0481125   0.0000000), wk =   0.0219780
        k(   87) = (   0.0666667   0.0384900   0.0000000), wk =   0.0219780
        k(   88) = (   0.0500000   0.0288675   0.0000000), wk =   0.0219780
        k(   89) = (   0.0333333   0.0192450   0.0000000), wk =   0.0219780
        k(   90) = (   0.0166667   0.0096225   0.0000000), wk =   0.0219780
        k(   91) = (   0.0000000   0.0000000   0.0000000), wk =   0.0219780

     Dense  grid:   111239 G-vectors     FFT dimensions: (  36,  36, 216)

     Estimated max dynamical RAM per process >       5.89 MB

     Estimated total dynamical RAM >     188.61 MB

     The potential is recalculated from file :
     ./tmp/mos2.save/charge-density

     Starting wfcs are   27 randomized atomic wfcs +   13 random wfcs

     Band Structure Calculation
     Davidson diagonalization with overlap

     ethr =  5.56E-09,  avg # of iterations = 38.6

     total cpu time spent up to now is       33.5 secs

     End of band structure calculation

          k = 0.0000 0.0000 0.0000 ( 13997 PWs)   bands (ev):

   -15.9447 -14.6597  -7.4519  -4.3099  -4.3099  -3.5227  -3.1064  -3.1064
    -1.8235   1.3392   1.3392   1.5343   1.5343   3.8880   4.1248   4.7926
     5.3403   5.9354   7.0737   7.4635   8.7107   9.3310   9.3310   9.9754
    11.5266  11.5266  11.5805  12.4759  13.9017  15.0997  15.0997  15.1203
    15.1203  15.1854  16.8658  17.0211  17.6965  18.9597  21.1022  21.1022

          k = 0.0167 0.0000 0.0000 ( 14011 PWs)   bands (ev):

   -15.9415 -14.6581  -7.4481  -4.3173  -4.3063  -3.5473  -3.1120  -3.0863
    -1.8244   1.3326   1.3451   1.5226   1.5304   3.8947   4.1291   4.7999
     5.3523   5.9394   7.0780   7.4800   8.7143   9.3139   9.3413   9.9868
    11.4965  11.5277  11.5812  12.4799  13.9002  15.0749  15.0871  15.0982
    15.1252  15.2258  16.8777  17.0353  17.7387  18.9611  21.0836  21.1146

          k = 0.0333 0.0000 0.0000 ( 14025 PWs)   bands (ev):

   -15.9319 -14.6532  -7.4368  -4.3394  -4.2956  -3.6103  -3.1288  -3.0367
    -1.8272   1.3135   1.3629   1.4885   1.5186   3.9145   4.1419   4.8212
     5.3883   5.9516   7.0907   7.5289   8.7249   9.2660   9.3718  10.0178
    11.4106  11.5310  11.5825  12.4913  13.8955  14.9595  15.0489  15.0950
    15.1365  15.3362  16.9135  17.0708  17.8621  18.9653  21.0323  21.1507

          k = 0.0500 0.0000 0.0000 ( 14035 PWs)   bands (ev):

   -15.9158 -14.6451  -7.4182  -4.3757  -4.2778  -3.6948  -3.1570  -2.9745
    -1.8321   1.2834   1.3922   1.4343   1.4992   3.9459   4.1632   4.8550
     5.4490   5.9719   7.1119   7.6085   8.7426   9.1952   9.4218  10.0626
    11.2794  11.5360  11.5825  12.5089  13.8873  14.7968  14.9842  15.0934
    15.1530  15.5079  16.9729  17.1166  18.0558  18.9724  20.9577  21.2063

          k = 0.0667 0.0000 0.0000 ( 14013 PWs)   bands (ev):

   -15.8935 -14.6338  -7.3923  -4.4251  -4.2530  -3.7906  -3.1967  -2.9095
    -1.8396   1.2447   1.3636   1.4326   1.4723   3.9874   4.1928   4.8990
     5.5348   6.0002   7.1414   7.7159   8.7670   9.1094   9.4897  10.1160
    11.1158  11.5421  11.5781  12.5316  13.8753  14.6086  14.8925  15.0976
    15.1749  15.7289  17.0551  17.1685  18.3029  18.9822  20.8681  21.2726

          k = 0.0833-0.0000 0.0000 ( 14009 PWs)   bands (ev):

   -15.8649 -14.6193  -7.3596  -4.4866  -4.2215  -3.8922  -3.2483  -2.8467
    -1.8504   1.2002   1.2805   1.4384   1.4834   4.0373   4.2307   4.9514
     5.6452   6.0364   7.1792   7.8473   8.7977   9.0144   9.5734  10.1752
    10.9317  11.5482  11.5668  12.5585  13.8588  14.4126  14.7743  15.1118
    15.2019  15.9861  17.1591  17.2281  18.5868  18.9938  20.7665  21.2757

          k = 0.1000 0.0000 0.0000 ( 13993 PWs)   bands (ev):

   -15.8303 -14.6017  -7.3204  -4.5587  -4.1836  -3.9969  -3.3118  -2.7886
    -1.8653   1.1530   1.1890   1.3981   1.5439   4.0945   4.2767   5.0107
     5.7788   6.0804   7.2254   7.9983   8.8341   8.9146   9.6699  10.2391
    10.7372  11.5467  11.5525  12.5889  13.8369  14.2225  14.6322  15.1390
    15.2334  16.2667  17.2834  17.2997  18.8947  19.0049  20.6482  20.8615

          k = 0.1167-0.0000 0.0000 ( 13983 PWs)   bands (ev):

   -15.7896 -14.5811  -7.2752  -4.6398  -4.1396  -4.1027  -3.3874  -2.7364
    -1.8850   1.0930   1.1060   1.3520   1.6132   4.1582   4.3307   5.0761
     5.9331   6.1321   7.2799   8.1636   8.8133   8.8752   9.7753  10.3074
    10.5413  11.5177  11.5530  12.6222  13.8066  14.0489  14.4719  15.1812
    15.2688  16.5562  17.3910  17.4259  19.0107  19.2164  20.4590  20.4969

          k = 0.1333 0.0000 0.0000 ( 13975 PWs)   bands (ev):

   -15.7432 -14.5576  -7.2248  -4.7282  -4.2083  -4.0901  -3.4749  -2.6909
    -1.9105   0.9960   1.0620   1.3012   1.6901   4.2280   4.3926   5.1475
     6.1047   6.1914   7.3431   8.3373   8.7126   8.9193   9.8839  10.3520
    10.3804  11.4828  11.5467  12.6580  13.7594  13.9008  14.3054  15.2390
    15.3069  16.8346  17.5156  17.5842  19.0018  19.5413  20.0711  20.2804

          k = 0.1500 0.0000 0.0000 ( 13983 PWs)   bands (ev):

   -15.6911 -14.5312  -7.1699  -4.8220  -4.3127  -4.0357  -3.5740  -2.6525
    -1.9426   0.9010   1.0232   1.2469   1.7736   4.3037   4.4622   5.2248
     6.2581   6.2899   7.4154   8.5122   8.6140   8.9633   9.9887  10.1785
    10.4579  11.4480  11.5306  12.6967  13.6763  13.7855  14.1559  15.3123
    15.3466  17.0750  17.6933  17.7553  18.9620  19.6930  19.8432  19.9759

          k = 0.1667-0.0000 0.0000 ( 13971 PWs)   bands (ev):

   -15.6336 -14.5021  -7.1115  -4.9191  -4.4151  -3.9772  -3.6839  -2.6214
    -1.9820   0.8102   0.9914   1.1907   1.8623   4.3852   4.5395   5.3083
     6.3321   6.4843   7.4978   8.5186   8.6790   9.0024  10.0331  10.0812
    10.5377  11.4235  11.5022  12.7401  13.5337  13.7074  14.0514  15.3864
    15.4003  17.2611  17.9292  17.9360  18.8695  19.3512  19.6177  19.7578

          k = 0.1833-0.0000 0.0000 ( 13959 PWs)   bands (ev):

   -15.5710 -14.4705  -7.0508  -5.0175  -4.5149  -3.9157  -3.8038  -2.5976
    -2.0289   0.7252   0.9677   1.1347   1.9549   4.4726   4.6242   5.3982
     6.4130   6.6832   7.5915   8.4266   8.8222   9.0321   9.9330  10.1524
    10.6156  11.4224  11.4604  12.7915  13.3343  13.6669  13.9947  15.4248
    15.5018  17.4057  18.1221  18.1807  18.7075  19.0542  19.2445  19.4023

          k = 0.2000 0.0000 0.0000 ( 13961 PWs)   bands (ev):

   -15.5036 -14.4364  -6.9893  -5.1148  -4.6117  -3.9322  -3.8527  -2.5812
    -2.0831   0.6469   0.9529   1.0811   2.0502   4.5657   4.7161   5.4947
     6.5007   6.8811   7.6982   8.3382   8.9010   9.0722   9.8962  10.1946
    10.6867  11.4069  11.4548  12.8549  13.1041  13.6605  13.9673  15.4602
    15.6157  17.5294  18.3028  18.3084  18.4807  18.8770  18.8809  19.0776

          k = 0.2167 0.0000 0.0000 ( 13965 PWs)   bands (ev):

   -15.4316 -14.4001  -6.9288  -5.2087  -4.7056  -4.0677  -3.7899  -2.5721
    -2.1437   0.5753   0.9474   1.0324   2.1466   4.6647   4.8151   5.5980
     6.5948   7.0718   7.8202   8.2536   8.8778   9.1526   9.9273  10.2050
    10.7497  11.3459  11.5182  12.8688  12.9330  13.6813  13.9563  15.4912
    15.7407  17.6429  18.1681  18.1911  18.3984  18.6144  18.6199  19.1360

          k = 0.2333-0.0000 0.0000 ( 13965 PWs)   bands (ev):

   -15.3553 -14.3616  -6.8715  -5.2962  -4.7967  -4.2079  -3.7297  -2.5701
    -2.2089   0.5102   0.9510   0.9910   2.2430   4.7694   4.9208   5.7081
     6.6950   7.2484   7.9576   8.1748   8.7995   9.2391  10.0110  10.1876
    10.8070  11.2831  11.5871  12.6595  13.0265  13.7215  13.9561  15.5168
    15.8756  17.7416  17.8840  17.9292  18.0968  18.2843  18.7382  18.8716

          k = 0.2500 0.0000 0.0000 ( 13949 PWs)   bands (ev):

   -15.2752 -14.3213  -6.8203  -5.3745  -4.8859  -4.3503  -3.6752  -2.5752
    -2.2761   0.4513   0.9592   0.9633   2.3381   4.8796   5.0329   5.8251
     6.8009   7.4031   8.0696   8.1460   8.7020   9.3160  10.1253  10.1525
    10.8576  11.2247  11.6084  12.5275  13.1332  13.7728  13.9652  15.5379
    16.0190  17.5611  17.6770  17.7445  17.7570  18.0427  18.5189  18.6442

          k = 0.2667 0.0000 0.0000 ( 13943 PWs)   bands (ev):

   -15.1917 -14.2792  -6.7779  -5.4402  -4.9751  -4.4912  -3.6301  -2.5873
    -2.3417   0.3986   0.9382   0.9837   2.4305   4.9952   5.1512   5.9492
     6.9118   7.5237   8.0300   8.3001   8.6018   9.3822  10.1119  10.2542
    10.8918  11.1759  11.5344  12.5236  13.2470  13.8274  13.9844  15.5567
    16.1700  17.2336  17.3945  17.4426  17.5103  18.0698  18.1672  18.2940

          k = 0.2833-0.0000 0.0000 ( 13921 PWs)   bands (ev):

   -15.1052 -14.2357  -6.7476  -5.4902  -5.0674  -4.6256  -3.5990  -2.6061
    -2.4012   0.3529   0.9284   1.0115   2.5192   5.1158   5.2751   6.0804
     7.0271   7.5860   8.0144   8.4804   8.5082   9.4389  10.0766  10.3887
    10.8810  11.1404  11.4064  12.6283  13.3576  13.8804  14.0156  15.5778
    16.3270  16.9081  17.0515  17.1627  17.2627  17.8195  17.9460  18.1697

          k = 0.3000 0.0000 0.0000 ( 13921 PWs)   bands (ev):

   -15.0163 -14.1910  -6.7316  -5.5223  -5.1673  -4.7475  -3.5867  -2.6315
    -2.4500   0.3155   0.9293   1.0457   2.6033   5.2410   5.4043   6.2185
     7.1459   7.5694   8.0612   8.4266   8.6630   9.4876  10.0555  10.5243
    10.7760  11.1203  11.3233  12.7864  13.4460  13.9345  14.0613  15.6054
    16.4823  16.5955  16.7174  16.8448  17.0746  17.4785  17.6068  18.2485

          k = 0.3167 0.0000 0.0000 ( 13927 PWs)   bands (ev):

   -14.9253 -14.1452  -6.7307  -5.5357  -5.2792  -4.8508  -3.5969  -2.6634
    -2.4842   0.2883   0.9395   1.0852   2.6820   5.3701   5.5383   6.3636
     7.2672   7.4948   8.1525   8.3608   8.8373   9.5307  10.0546  10.5809
    10.6586  11.1167  11.3137  12.9622  13.4854  14.0037  14.1228  15.6378
    16.2731  16.3913  16.5307  16.6635  16.9146  17.1462  17.2785  18.1671

          k = 0.3333-0.0000 0.0000 ( 13925 PWs)   bands (ev):

   -14.8329 -14.0988  -6.7441  -5.5318  -5.4044  -4.9329  -3.6315  -2.7015
    -2.5021   0.2734   0.9571   1.1288   2.7549   5.5022   5.6766   6.5155
     7.3894   7.3913   8.2613   8.3142   8.9921   9.5714  10.0727  10.3608
    10.7874  11.1321  11.3393  13.1370  13.4572  14.0994  14.1972  15.6610
    15.9752  16.0823  16.2274  16.7856  16.8037  16.8469  16.9696  17.9544

          k = 0.3500-0.0000 0.0000 ( 13925 PWs)   bands (ev):

   -14.7396 -14.0518  -6.7689  -5.5404  -5.5135  -4.9950  -3.6890  -2.7454
    -2.5047   0.2726   0.9802   1.1752   2.8216   5.6360   5.8184   6.6734
     7.2743   7.5105   8.2899   8.3729   9.1143   9.6130  10.0390  10.2329
    10.9006  11.1748  11.3755  13.3008  13.3672  14.2145  14.2736  15.6454
    15.6853  15.7991  15.9405  16.5118  16.6548  16.6976  17.0195  17.6710

          k = 0.3667-0.0000 0.0000 ( 13937 PWs)   bands (ev):

   -14.6462 -14.0048  -6.8014  -5.6827  -5.4851  -5.0404  -3.7663  -2.7950
    -2.4948   0.2869   1.0069   1.2229   2.8824   5.7692   5.9633   6.8349
     7.1540   7.6277   8.2914   8.4752   9.1888   9.6589   9.8884  10.2978
    10.9821  11.2586  11.4137  13.2318  13.4490  14.3279  14.3331  15.3971
    15.5552  15.5605  15.6849  16.2168  16.3827  16.6507  17.1965  17.3933

          k = 0.3833 0.0000 0.0000 ( 13915 PWs)   bands (ev):

   -14.5533 -13.9579  -6.8378  -5.8275  -5.4508  -5.0718  -3.8589  -2.8497
    -2.4756   0.3164   1.0353   1.2705   2.9378   5.8980   6.1104   6.9640
     7.0729   7.7383   8.3219   8.5476   9.2085   9.7119   9.7824  10.4256
    11.0312  11.3821  11.4515  13.0659  13.5782  14.3295  14.4361  15.1102
    15.3703  15.3750  15.4845  15.9350  16.1604  16.6125  17.1324  17.3763

          k = 0.4000 0.0000 0.0000 ( 13913 PWs)   bands (ev):

   -14.4615 -13.9114  -6.8744  -5.9717  -5.4146  -5.0916  -3.9631  -2.9092
    -2.4494   0.3598   1.0643   1.3164   2.9886   6.0151   6.2589   6.8956
     7.2038   7.8403   8.3837   8.5543   9.2130   9.7550   9.7738  10.5807
    11.0626  11.4898  11.5287  12.8808  13.6773  14.2710  14.4911  14.8302
    15.1950  15.1978  15.2926  15.6617  16.0276  16.5347  16.8979  17.5469

          k = 0.4167-0.0000 0.0000 ( 13907 PWs)   bands (ev):

   -14.3717 -13.8658  -6.9084  -6.1130  -5.3797  -5.1011  -4.0755  -2.9730
    -2.4177   0.4144   1.0935   1.3589   3.0362   6.1063   6.4079   6.8096
     7.3788   7.9351   8.4756   8.4778   9.2661   9.7770   9.8451  10.7491
    11.0863  11.5317  11.6862  12.6849  13.7101  14.1986  14.4488  14.5673
    15.0032  15.0639  15.1214  15.3947  15.9916  16.3976  16.6952  17.3613

          k = 0.4333 0.0000 0.0000 ( 13885 PWs)   bands (ev):

   -14.2845 -13.8213  -6.9374  -6.2499  -5.3486  -5.1014  -4.1937  -3.0404
    -2.3809   0.4754   1.1243   1.3964   3.0818   6.1489   6.5564   6.7655
     7.5528   8.0274   8.3586   8.5929   9.3727   9.8211   9.9252  10.9182
    11.1072  11.5830  11.8471  12.4858  13.6314  14.1329  14.3050  14.3714
    14.7879  14.8502  15.1104  15.1373  16.0006  16.2254  16.5136  17.1282

          k = 0.4500 0.0000 0.0000 ( 13882 PWs)   bands (ev):

   -14.2007 -13.7782  -6.9593  -6.3809  -5.3232  -5.0933  -4.3157  -3.1110
    -2.3387   0.5356   1.1598   1.4277   3.1270   6.1279   6.7033   6.7754
     7.7042   8.1228   8.2617   8.7298   9.5112   9.8749  10.0121  11.0734
    11.1285  11.6539  11.9997  12.2955  13.4700  13.9481  14.1133  14.3251
    14.5937  14.6223  14.9019  15.1319  15.9909  16.0567  16.3385  16.9127

          k = 0.4667-0.0000 0.0000 ( 13894 PWs)   bands (ev):

   -14.1210 -13.7370  -6.9727  -6.5051  -5.3050  -5.0775  -4.4400  -3.1841
    -2.2910   0.5860   1.2054   1.4515   3.1731   6.0584   6.8140   6.8472
     7.7883   8.2257   8.2646   8.8813   9.6678   9.9340  10.1025  11.1529
    11.1980  11.7574  12.0336  12.2236  13.2779  13.7095  13.9106  14.2050
    14.3931  14.4843  14.7560  15.1234  15.9186  15.9281  16.1690  16.7072

          k = 0.4833-0.0000 0.0000 ( 13890 PWs)   bands (ev):

   -14.0461 -13.6979  -6.9761  -6.6215  -5.2949  -5.0548  -4.5649  -3.2588
    -2.2374   0.6174   1.2667   1.4674   3.2211   5.9661   6.8393   6.9869
     7.8074   8.3390   8.3927   9.0434   9.8355   9.9968  10.1922  11.1826
    11.2813  11.8722  11.9008  12.3447  13.0804  13.4682  13.7137  13.9934
    14.1669  14.3107  14.8009  15.0586  15.8095  15.8171  16.0213  16.5046

          k = 0.5000 0.0000 0.0000 ( 13906 PWs)   bands (ev):

   -13.9767 -13.6613  -6.9687  -6.7293  -5.2940  -5.0259  -4.6887  -3.3345
    -2.1782   0.6244   1.3464   1.4750   3.2713   5.8674   6.8212   7.1209
     7.8411   8.4638   8.5860   9.2127  10.0093  10.0633  10.2767  11.2165
    11.3262  11.7060  12.0776  12.4646  12.8888  13.2330  13.5337  13.7700
    13.9472  14.0952  14.9141  14.9450  15.6845  15.6863  15.9297  16.3042

          k = 0.5167 0.0000 0.0000 ( 13900 PWs)   bands (ev):

   -13.9134 -13.6275  -6.9496  -6.8280  -5.3036  -4.9916  -4.8088  -3.4101
    -2.1143   0.6072   1.4418   1.4749   3.3239   5.7710   6.7559   7.2480
     7.9251   8.6001   8.8068   9.3861  10.1302  10.1880  10.3527  11.2386
    11.3419  11.5760  12.2757  12.5455  12.7085  13.0066  13.3823  13.5523
    13.7389  13.8787  14.8080  15.0088  15.5273  15.5771  15.8870  16.1118

          k = 0.5333 0.0000 0.0000 ( 13890 PWs)   bands (ev):

   -13.8565 -13.5967  -6.9185  -6.9170  -5.3264  -4.9530  -4.9211  -3.4848
    -2.0467   0.5699   1.4679   1.5474   3.3780   5.6823   6.6587   7.3665
     8.0528   8.7466   9.0423   9.5590  10.2032  10.3595  10.4197  11.2039
    11.3383  11.5327  12.4850  12.5409  12.5631  12.7921  13.2663  13.3461
    13.5525  13.6694  14.6699  15.0187  15.3603  15.5389  15.8575  15.9442

          k = 0.5500-0.0000 0.0000 ( 13896 PWs)   bands (ev):

   -13.8065 -13.5692  -6.9959  -6.8752  -5.3669  -5.0195  -4.9114  -3.5572
    -1.9774   0.5181   1.4554   1.6564   3.4326   5.6053   6.5458   7.4750
     8.2088   8.9011   9.2872   9.7255  10.2791  10.4802  10.5145  11.1130
    11.3297  11.5755  12.3831  12.5113  12.5787  12.7116  13.1553  13.1602
    13.4137  13.4703  14.5446  14.9314  15.1966  15.5233  15.8301  15.8639

          k = 0.5667-0.0000 0.0000 ( 13878 PWs)   bands (ev):

   -13.7636 -13.5453  -7.0642  -6.8200  -5.4297  -5.0973  -4.8681  -3.6262
    -1.9087   0.4576   1.4389   1.7628   3.4860   5.5434   6.4276   7.5718
     8.3808   9.0600   9.5375   9.8783  10.3581  10.5341  10.6303  11.0264
    11.3424  11.6431  12.2297  12.3942  12.4162  12.9122  12.9944  13.0214
    13.2840  13.3396  14.4378  14.8016  15.0427  15.4133  15.8117  15.9328

          k = 0.5833-0.0000 0.0000 ( 13876 PWs)   bands (ev):

   -13.7279 -13.5250  -7.1219  -6.7538  -5.5142  -5.1532  -4.8251  -3.6899
    -1.8432   0.3938   1.4201   1.8614   3.5365   5.4997   6.3095   7.6553
     8.5590   9.2179   9.7878  10.0114  10.4389  10.5642  10.6841  10.9959
    11.4067  11.6898  12.0763  12.2205  12.3150  12.8156  12.8631  13.0885
    13.1729  13.2970  14.3457  14.6637  14.9029  15.2571  15.8168  16.0645

          k = 0.6000 0.0000 0.0000 ( 13888 PWs)   bands (ev):

   -13.6993 -13.5085  -7.1687  -6.6784  -5.6122  -5.1924  -4.7845  -3.7465
    -1.7840   0.3323   1.4009   1.9473   3.5820   5.4772   6.1946   7.7239
     8.7341   9.3673  10.0270  10.1255  10.5152  10.5471  10.6913  11.0586
    11.5226  11.6795  11.9237  12.0634  12.2337  12.6747  12.7094  12.9370
    13.2679  13.3741  14.2590  14.5325  14.7790  15.0942  15.8584  16.1976

          k = 0.6167 0.0000 0.0000 ( 13886 PWs)   bands (ev):

   -13.6778 -13.4958  -7.2047  -6.5971  -5.7135  -5.2207  -4.7490  -3.7937
    -1.7342   0.2782   1.3830   2.0168   3.6205   5.4774   6.0852   7.7766
     8.8949   9.4984  10.2268  10.2280  10.5027  10.5549  10.7353  11.1963
    11.6033  11.6399  11.7773  11.9469  12.1668  12.5489  12.5731  12.7809
    13.2623  13.5767  14.1731  14.4189  14.6707  14.9341  15.9395  16.3048

          k = 0.6333 0.0000 0.0000 ( 13896 PWs)   bands (ev):

   -13.6629 -13.4869  -7.2300  -6.5169  -5.8077  -5.2414  -4.7212  -3.8293
    -1.6969   0.2361   1.3683   2.0673   3.6500   5.4993   5.9849   7.8129
     9.0272   9.5999  10.3123  10.3434  10.4712  10.5601  10.8827  11.3660
    11.4920  11.6268  11.6433  11.9791  12.0892  12.4427  12.4585  12.6278
    13.2879  13.7503  14.0952  14.3424  14.5784  14.7798  16.0471  16.3709

          k = 0.6500 0.0000 0.0000 ( 13900 PWs)   bands (ev):

   -13.6544 -13.4816  -7.2448  -6.4516  -5.8799  -5.2551  -4.7036  -3.8511
    -1.6739   0.2095   1.3583   2.0975   3.6688   5.5346   5.9027   7.8334
     9.1148   9.6626  10.3549  10.3730  10.4865  10.5752  11.0975  11.3780
    11.4960  11.5320  11.5336  12.0098  12.1289  12.3627  12.3661  12.4766
    13.3275  13.8580  14.0424  14.3397  14.5082  14.6353  16.1462  16.3972

          k = 0.6667-0.0000 0.0000 ( 13902 PWs)   bands (ev):

   -13.6517 -13.4799  -7.2497  -6.4248  -5.9083  -5.2604  -4.6977  -3.8583
    -1.6663   0.2005   1.3546   2.1073   3.6753   5.5565   5.8656   7.8398
     9.1449   9.6829  10.3646  10.3770  10.5074  10.5816  11.2707  11.3312
    11.4189  11.4291  11.6036  11.9799  12.2781  12.2987  12.3199  12.3679
    13.3463  13.8839  14.0271  14.3916  14.4781  14.5424  16.1858  16.4011

          k = 0.6583 0.0144 0.0000 ( 13902 PWs)   bands (ev):

   -13.6542 -13.4815  -7.2450  -6.4521  -5.8814  -5.2533  -4.7033  -3.8516
    -1.6734   0.2093   1.3587   2.0981   3.6685   5.5276   5.9092   7.8343
     9.1170   9.6655  10.3295  10.3661  10.5039  10.5827  11.1579  11.3171
    11.3820  11.5553  11.6454  11.9669  12.1449  12.3144  12.3906  12.5090
    13.3290  13.8776  14.0288  14.3068  14.5197  14.6512  16.1551  16.4025

          k = 0.6500 0.0289 0.0000 ( 13890 PWs)   bands (ev):

   -13.6614 -13.4862  -7.2316  -6.5206  -5.8199  -5.2264  -4.7187  -3.8332
    -1.6931   0.2342   1.3719   2.0720   3.6477   5.4587   6.0204   7.8195
     9.0422   9.6200  10.1877  10.3164  10.5421  10.5969  11.0031  11.2068
    11.4263  11.5576  11.9059  11.9090  11.9963  12.3248  12.5623  12.7212
    13.2974  13.8785  14.0148  14.1784  14.6482  14.8348  16.0909  16.4111

          k = 0.6417 0.0433 0.0000 ( 13890 PWs)   bands (ev):

   -13.6726 -13.4936  -7.2101  -6.6093  -5.7553  -5.1699  -4.7413  -3.8064
    -1.7223   0.2725   1.3951   2.0318   3.6129   5.3755   6.1708   7.7982
     8.9349   9.5534   9.9825  10.2272  10.6030  10.6093  10.8439  11.0983
    11.3423  11.7400  11.8300  11.8492  12.1835  12.3434  12.7353  12.9684
    13.3003  13.8955  13.9870  14.0521  14.8381  15.0394  16.0233  16.4266

          k = 0.6333 0.0577 0.0000 ( 13880 PWs)   bands (ev):

   -13.6871 -13.5033  -7.1815  -6.7059  -5.7080  -5.0763  -4.7681  -3.7745
    -1.7576   0.3209   1.4295   1.9802   3.5645   5.2890   6.3465   7.7723
     8.8062   9.4612   9.7613  10.1111  10.5819  10.6546  10.6932  11.0040
    11.2713  11.7236  11.7593  11.9586  12.3216  12.4991  12.8275  13.2477
    13.3991  13.9167  13.9427  13.9643  15.0531  15.2595  15.9735  16.4426

          k = 0.6250 0.0722 0.0000 ( 13882 PWs)   bands (ev):

   -13.7044 -13.5150  -7.1468  -6.8043  -5.6829  -4.9475  -4.7967  -3.7404
    -1.7961   0.3758   1.4755   1.9201   3.5036   5.2029   6.5408   7.7438
     8.6631   9.3115   9.5757   9.9751  10.4704  10.5867  10.6724  10.9307
    11.2338  11.6163  11.7124  12.1810  12.3320  12.7928  12.8434  13.5425
    13.5676  13.8280  13.9714  13.9806  15.2540  15.4915  15.9694  16.4522

          k = 0.6167 0.0866 0.0000 ( 13886 PWs)   bands (ev):

   -13.7237 -13.5283  -7.1072  -6.9016  -5.6757  -4.8249  -4.7917  -3.7067
    -1.8352   0.4341   1.5337   1.8540   3.4315   5.1189   6.7489   7.7137
     8.5096   9.0838   9.4572   9.8222  10.3205  10.4962  10.6480  10.8697
    11.2203  11.5255  11.7044  12.3379  12.3762  12.8635  13.1027  13.6788
    13.6818  13.8758  14.0570  14.1105  15.3900  15.7254  16.0520  16.4220

          k = 0.6083 0.1010 0.0000 ( 13882 PWs)   bands (ev):

   -13.7445 -13.5427  -7.0638  -6.9959  -5.6801  -4.8510  -4.6178  -3.6752
    -1.8730   0.4930   1.6042   1.7843   3.3501   5.0380   6.9670   7.6829
     8.3481   8.8179   9.3730   9.6563  10.1776  10.4008  10.5939  10.8092
    11.2031  11.4463  11.7466  12.3462  12.4885  12.9716  13.3945  13.6359
    13.6982  13.9936  14.3195  14.3571  15.4442  15.9361  16.2069  16.4362

          k = 0.6000 0.1155 0.0000 ( 13886 PWs)   bands (ev):

   -13.7662 -13.5579  -7.0861  -7.0181  -5.6918  -4.8737  -4.4322  -3.6473
    -1.9085   0.5500   1.6868   1.7132   3.2617   4.9607   7.1909   7.6514
     8.1804   8.5406   9.3017   9.4852  10.0503  10.3055  10.5264  10.7452
    11.1689  11.3736  11.8276  12.3562  12.5214  13.1779  13.4494  13.6854
    13.8284  14.0581  14.6420  14.6738  15.4631  16.0748  16.2827  16.4358

          k = 0.5917 0.1299 0.0000 ( 13870 PWs)   bands (ev):

   -13.7882 -13.5735  -7.1712  -6.9712  -5.7077  -4.8921  -4.2397  -3.6238
    -1.9410   0.6030   1.6426   1.7808   3.1685   4.8872   7.4143   7.6185
     8.0102   8.2628   9.2375   9.3193   9.9389  10.2142  10.4556  10.6792
    11.1230  11.3039  11.9181  12.3655  12.5428  13.3730  13.4270  13.6666
    14.0912  14.1970  14.9105  15.0514  15.5052  16.1069  16.2936  16.4322

          k = 0.5833 0.1443 0.0000 ( 13868 PWs)   bands (ev):

   -13.8100 -13.5891  -7.2508  -6.9245  -5.7261  -4.9056  -4.0438  -3.6052
    -1.9708   0.6504   1.5745   1.8854   3.0730   4.8179   7.5808   7.6124
     7.8593   7.9931   9.1689   9.1787   9.8414  10.1292  10.3865  10.6136
    11.0724  11.2355  11.9867  12.3714  12.5974  13.2867  13.6306  13.7074
    14.1766  14.5433  15.0962  15.4408  15.6408  16.0651  16.3044  16.4213

          k = 0.5750 0.1588 0.0000 ( 13876 PWs)   bands (ev):

   -13.8312 -13.6043  -7.3243  -6.8792  -5.7456  -4.9141  -3.8475  -3.5917
    -1.9985   0.6907   1.5107   1.9990   2.9777   4.7529   7.5197   7.5976
     7.7541   7.9110   9.0443   9.1249   9.7562  10.0514  10.3217  10.5505
    11.0218  11.1679  12.0175  12.3724  12.7003  13.1995  13.6254  13.9597
    14.2596  14.9103  15.1827  15.8326  15.8813  15.9913  16.3356  16.4115

          k = 0.5667 0.1732 0.0000 ( 13868 PWs)   bands (ev):

   -13.8513 -13.6188  -7.3911  -6.8364  -5.7653  -4.9174  -3.6534  -3.5830
    -2.0252   0.7226   1.4531   2.1195   2.8851   4.6924   7.3668   7.4365
     7.6174   8.0889   8.9591   9.0762   9.6819   9.9815  10.2626  10.4916
    10.9736  11.1011  12.0176  12.3682  12.8385  13.1126  13.6204  14.2040
    14.3507  15.2397  15.2747  15.9105  16.1132  16.1815  16.4397  16.4566

          k = 0.5583 0.1876 0.0000 ( 13840 PWs)   bands (ev):

   -13.8699 -13.6323  -7.4509  -6.7971  -5.7842  -4.9162  -3.5788  -3.4640
    -2.0523   0.7457   1.4030   2.2443   2.7976   4.6366   7.1418   7.2693
     7.5671   8.2327   8.9359   9.0326   9.6181   9.9200  10.2098  10.4377
    10.9294  11.0350  12.0014  12.3594  12.9875  13.0266  13.6314  14.4108
    14.4473  15.3232  15.5743  15.8920  16.2188  16.2983  16.6870  16.7495

          k = 0.5500 0.2021 0.0000 ( 13846 PWs)   bands (ev):

   -13.8867 -13.6446  -7.5035  -6.7621  -5.8019  -4.9110  -3.5782  -3.2817
    -2.0816   0.7598   1.3617   2.3693   2.7179   4.5859   6.9131   7.1118
     7.5385   8.3053   8.9943   8.9963   9.5649   9.8673  10.1638  10.3895
    10.8900  10.9695  11.9790  12.3471  12.9425  13.1212  13.6712  14.5449
    14.5574  15.4664  15.6118  16.1201  16.2587  16.3327  16.9757  17.1606

          k = 0.5417 0.2165 0.0000 ( 13858 PWs)   bands (ev):

   -13.9014 -13.6553  -7.5484  -6.7320  -5.8178  -4.9031  -3.5804  -3.1088
    -2.1152   0.7658   1.3293   2.4875   2.6509   4.5408   6.6997   6.9702
     7.5174   8.3150   8.9615   9.1231   9.5236   9.8244  10.1246  10.3472
    10.8560  10.9042  11.9557  12.3325  12.8624  13.2170  13.7527  14.6376
    14.6405  15.5414  15.6751  16.2726  16.2819  16.5539  17.1763  17.5922

          k = 0.5333 0.2309 0.0000 ( 13850 PWs)   bands (ev):

   -13.9138 -13.6644  -7.5855  -6.7071  -5.8314  -4.8937  -3.5844  -2.9476
    -2.1550   0.7655   1.3054   2.5536   2.6382   4.5020   6.5098   6.8490
     7.5011   8.2958   8.9344   9.2670   9.5011   9.7930  10.0925  10.3107
    10.8278  10.8395  11.9346  12.3171  12.7890  13.2704  13.8710  14.6787
    14.7194  15.4676  15.9299  16.2987  16.3004  16.9179  17.2087  17.7634

          k = 0.5250 0.2454 0.0000 ( 13844 PWs)   bands (ev):

   -13.9237 -13.6717  -7.6146  -6.6876  -5.8423  -4.8843  -3.5890  -2.8001
    -2.2030   0.7615   1.2889   2.5218   2.7211   4.4704   6.3508   6.7516
     7.4886   8.2703   8.9131   9.3641   9.5257   9.7779  10.0675  10.2794
    10.7765  10.8056  11.9171  12.3019  12.7263  13.2955  14.0023  14.6915
    14.7847  15.4071  16.2055  16.3139  16.3238  17.1436  17.2838  17.7081

          k = 0.5167 0.2598 0.0000 ( 13852 PWs)   bands (ev):

   -13.9308 -13.6769  -7.6354  -6.6737  -5.8503  -4.8763  -3.5933  -2.6689
    -2.2603   0.7563   1.2784   2.4883   2.7974   4.4470   6.2299   6.6804
     7.4798   8.2483   8.8979   9.3833   9.5955   9.7916  10.0496  10.2531
    10.7196  10.7896  11.9042  12.2888  12.6781  13.3063  14.1207  14.6912
    14.8302  15.3647  16.3134  16.3480  16.4979  17.0604  17.5985  17.6786

          k = 0.5083 0.2742 0.0000 ( 13864 PWs)   bands (ev):

   -13.9352 -13.6801  -7.6480  -6.6654  -5.8552  -4.8710  -3.5962  -2.5592
    -2.3245   0.7523   1.2726   2.4672   2.8473   4.4325   6.1539   6.6370
     7.4745   8.2341   8.8887   9.3809   9.6336   9.8341  10.0389  10.2329
    10.6775  10.7799  11.8963  12.2797  12.6479  13.3105  14.2040  14.6860
    14.8559  15.3409  16.3190  16.3673  16.7584  16.9944  17.6046  17.6089

          k = 0.5000 0.2887 0.0000 ( 13882 PWs)   bands (ev):

   -13.9366 -13.6812  -7.6522  -6.6626  -5.8569  -4.8691  -3.5972  -2.5014
    -2.3669   0.7507   1.2708   2.4600   2.8647   4.4276   6.1279   6.6225
     7.4727   8.2292   8.8856   9.3790   9.6418   9.8583  10.0353  10.2244
    10.6615  10.7767  11.8936  12.2764  12.6376  13.3116  14.2344  14.6830
    14.8640  15.3334  16.3205  16.3748  16.9132  16.9481  17.4859  17.5909

          k = 0.4833 0.2791 0.0000 ( 13858 PWs)   bands (ev):

   -13.9442 -13.6846  -7.6446  -6.6550  -5.8529  -4.8656  -3.5947  -2.5057
    -2.3755   0.7487   1.2609   2.4544   2.8629   4.4527   6.1264   6.6093
     7.4655   8.2284   8.8684   9.2193   9.7740   9.8716  10.0143  10.1739
    10.7755  10.8056  11.9204  12.1561  12.7662  13.3001  14.2199  14.7049
    14.7995  15.3726  16.3065  16.3369  16.9076  16.9255  17.4927  17.5523

          k = 0.4667 0.2694 0.0000 ( 13868 PWs)   bands (ev):

   -13.9668 -13.6948  -7.6220  -6.6323  -5.8411  -4.8552  -3.5869  -2.5187
    -2.4006   0.7429   1.2323   2.4377   2.8574   4.5260   6.1222   6.5715
     7.4426   8.2180   8.8229   8.9895   9.8034   9.9112   9.9532  10.2576
    10.8910  11.0017  11.9604  11.9898  12.9880  13.2772  14.1765  14.6549
    14.7602  15.4412  16.2278  16.2707  16.8528  16.8913  17.4629  17.5237

          k = 0.4500 0.2598 0.0000 ( 13862 PWs)   bands (ev):

   -14.0038 -13.7115  -7.5851  -6.5949  -5.8223  -4.8379  -3.5740  -2.5405
    -2.4399   0.7341   1.1878   2.4096   2.8482   4.6429   6.1171   6.5135
     7.4007   8.1745   8.7625   8.7844   9.6911   9.8622   9.9762  10.5111
    11.0224  11.2415  11.7950  12.0754  13.2108  13.2717  14.1057  14.4874
    14.8234  15.4861  16.0585  16.2288  16.7315  16.8656  17.3632  17.5937

          k = 0.4333 0.2502 0.0000 ( 13852 PWs)   bands (ev):

   -14.0541 -13.7343  -7.5350  -6.5432  -5.7978  -4.8137  -3.5557  -2.5710
    -2.4901   0.7234   1.1314   2.3700   2.8351   4.7966   6.1124   6.4408
     7.3376   8.0716   8.6240   8.6970   9.5874   9.7602  10.0650  10.7837
    11.1750  11.3836  11.7812  12.1541  13.3159  13.3976  14.0098  14.3317
    14.8625  15.4960  15.8423  16.1934  16.5895  16.8325  17.2759  17.7039

          k = 0.4167 0.2406 0.0000 ( 13840 PWs)   bands (ev):

   -14.1167 -13.7629  -7.4733  -6.4781  -5.7694  -4.7828  -3.5319  -2.6104
    -2.5467   0.7121   1.0668   2.3188   2.8179   4.9787   6.1091   6.3587
     7.2554   7.9105   8.4983   8.6270   9.5236   9.6681  10.1757  10.9748
    11.3107  11.4210  11.9922  12.2311  13.4239  13.5050  13.8915  14.2220
    14.8538  15.4941  15.5913  16.1310  16.5041  16.7936  17.2040  17.8485

          k = 0.4000 0.2309 0.0000 ( 13862 PWs)   bands (ev):

   -14.1900 -13.7967  -7.4017  -6.4003  -5.7393  -4.7452  -3.5026  -2.6586
    -2.6045   0.7019   0.9975   2.2560   2.7963   5.1794   6.1057   6.2728
     7.1616   7.7185   8.3826   8.5454   9.4943   9.6038  10.3055  10.9788
    11.3841  11.6014  12.2642  12.3466  13.5130  13.5783  13.7546  14.1702
    14.8001  15.3158  15.5290  15.9798  16.5618  16.7505  17.1378  18.0204

          k = 0.3833 0.2213 0.0000 ( 13858 PWs)   bands (ev):

   -14.2724 -13.8351  -7.3223  -6.3111  -5.7102  -4.7012  -3.4675  -2.7154
    -2.6578   0.6944   0.9264   2.1823   2.7701   5.3850   6.0971   6.1910
     7.0691   7.5174   8.2682   8.4450   9.4769   9.5769  10.4514  10.9152
    11.3739  11.8345  12.5277  12.5302  13.4883  13.6029  13.7319  14.1348
    14.7430  15.0244  15.6435  15.7801  16.7039  16.7259  17.0675  18.2122

          k = 0.3667 0.2117 0.0000 ( 13870 PWs)   bands (ev):

   -14.3624 -13.8773  -7.2375  -6.2115  -5.6842  -4.6509  -3.4267  -2.7804
    -2.7010   0.6909   0.8557   2.0985   2.7389   5.5694   6.0741   6.1328
     6.9942   7.3181   8.1597   8.3250   9.4474   9.5869  10.6098  10.8715
    11.3008  11.9800  12.7658  12.7761  13.4407  13.5211  13.8120  14.1054
    14.7247  14.7577  15.5773  15.8413  16.6542  16.9499  16.9911  18.4134

          k = 0.3500 0.2021 0.0000 ( 13882 PWs)   bands (ev):

   -14.4584 -13.9227  -7.1501  -6.1028  -5.6633  -4.5945  -3.3801  -2.8532
    -2.7290   0.6927   0.7875   2.0060   2.7025   5.6729   6.0258   6.1497
     6.9527   7.1263   8.0647   8.1910   9.3911   9.6245  10.7762  10.8661
    11.1956  11.9576  13.0049  13.0515  13.2720  13.5871  13.7927  14.1639
    14.4238  14.8734  15.4153  16.0903  16.6011  16.9192  17.2114  18.6003

          k = 0.3333 0.1925 0.0000 ( 13876 PWs)   bands (ev):

   -14.5588 -13.9706  -7.0633  -5.9862  -5.6481  -4.5323  -3.3280  -2.9330
    -2.7381   0.7008   0.7234   1.9065   2.6605   5.6551   5.9461   6.2714
     6.9467   6.9526   7.9895   8.0521   9.3056   9.6768  10.8944  10.9448
    11.0803  11.8006  13.1007  13.1378  13.3260  13.6351  13.8044  14.1291
    14.3882  14.9310  15.4301  16.3248  16.5443  16.8981  17.4980  18.7087

          k = 0.3167 0.1828 0.0000 ( 13898 PWs)   bands (ev):

   -14.6621 -14.0204  -6.9812  -5.8631  -5.6373  -4.4646  -3.2705  -3.0188
    -2.7259   0.6650   0.7158   1.8021   2.6128   5.5704   5.8386   6.4208
     6.7945   6.9877   7.9193   7.9388   9.1966   9.7297  10.9421  10.9699
    11.1077  11.5793  12.9302  13.0557  13.3929  13.8496  13.8826  13.9904
    14.7238  14.8315  15.6881  16.4160  16.4831  17.0452  17.8013  18.6845

          k = 0.3000 0.1732 0.0000 ( 13933 PWs)   bands (ev):

   -14.7670 -14.0713  -6.9087  -5.7347  -5.6272  -4.3917  -3.2084  -3.1095
    -2.6922   0.6141   0.7380   1.6951   2.5591   5.4607   5.7120   6.4672
     6.7496   7.0392   7.8085   7.9151   9.0709   9.7684  10.8751  10.9926
    11.2535  11.3409  12.7636  12.8582  13.3465  13.5973  14.2252  14.2687
    14.7540  15.1119  16.0415  16.3648  16.4170  17.3555  18.1141  18.5857

          k = 0.2833 0.1636 0.0000 ( 13953 PWs)   bands (ev):

   -14.8723 -14.1227  -6.8514  -5.6120  -5.6022  -4.3141  -3.2040  -3.1426
    -2.6387   0.5724   0.7674   1.5879   2.4994   5.3407   5.5751   6.3579
     6.8423   7.0753   7.7459   7.9183   8.9320   9.7798  10.8010  11.0199
    11.1288  11.3650  12.6036  12.6359  13.3027  13.3898  14.2693  14.6897
    14.9127  15.5220  16.2757  16.3458  16.4351  17.7290  18.4140  18.4762

          k = 0.2667 0.1540 0.0000 ( 13943 PWs)   bands (ev):

   -14.9767 -14.1740  -6.8146  -5.5853  -5.4667  -4.2322  -3.3008  -3.0742
    -2.5687   0.5418   0.8037   1.4834   2.4337   5.2164   5.4342   6.2144
     6.9396   7.0612   7.7613   7.9444   8.7802   9.7566  10.7416  10.8960
    11.0859  11.4198  12.4308  12.4524  13.2496  13.2824  14.1554  15.1238
    15.2636  15.8890  16.2438  16.2691  16.8529  18.1253  18.3199  18.7461

          k = 0.2500 0.1443 0.0000 ( 13951 PWs)   bands (ev):

   -15.0793 -14.2247  -6.8019  -5.5415  -5.3294  -4.1466  -3.3989  -3.0050
    -2.4867   0.5243   0.8464   1.3843   2.3623   5.0910   5.2936   6.0697
     6.9927   7.0038   7.8544   7.9859   8.6143   9.7009  10.6763  10.7534
    11.0942  11.3985  12.2737  12.3116  13.1962  13.2893  14.0131  15.5365
    15.6733  15.9828  16.1873  16.5346  17.2871  18.1835  18.5200  19.0383

          k = 0.2333 0.1347 0.0000 ( 13949 PWs)   bands (ev):

   -15.1791 -14.2742  -6.8136  -5.4781  -5.1909  -4.0579  -3.4967  -2.9373
    -2.3977   0.5219   0.8949   1.2935   2.2855   4.9669   5.1562   5.9298
     6.8931   7.0282   7.9967   8.0331   8.4366   9.6212  10.5806  10.6621
    11.0943  11.2997  12.1825  12.1888  13.2307  13.3211  13.8735  15.7100
    16.1005  16.1096  16.1801  16.9886  17.7248  18.0550  18.8454  19.2075

          k = 0.2167 0.1251 0.0000 ( 13945 PWs)   bands (ev):

   -15.2753 -14.3222  -6.8467  -5.3964  -5.0520  -3.9669  -3.5932  -2.8735
    -2.3068   0.5363   0.9482   1.2140   2.2040   4.8458   5.0241   5.7963
     6.7820   7.0107   8.0655   8.1618   8.2696   9.5262  10.4459  10.6168
    11.0933  11.1428  12.0660  12.1832  13.3340  13.3724  13.7463  15.6379
    16.0097  16.5625  16.6179  17.4734  17.8870  18.2048  18.8507  19.3399

          k = 0.2000 0.1155 0.0000 ( 13945 PWs)   bands (ev):

   -15.3671 -14.3681  -6.8961  -5.2996  -4.9134  -3.8743  -3.6870  -2.8167
    -2.2186   0.5688   1.0055   1.1484   2.1185   4.7289   4.8985   5.6698
     6.6694   6.9491   7.9863   8.2221   8.3294   9.4216  10.2894  10.5965
    10.9518  11.1053  11.9626  12.2427  13.4365  13.4816  13.6380  15.5325
    15.9158  17.0242  17.0976  17.7653  17.9712  18.5990  18.6675  19.3541

          k = 0.1833 0.1058 0.0000 ( 13953 PWs)   bands (ev):

   -15.4538 -14.4116  -6.9564  -5.1923  -4.7753  -3.7811  -3.7772  -2.7699
    -2.1370   0.6199   1.0656   1.0993   2.0301   4.6170   4.7805   5.5509
     6.5602   6.8417   7.8254   8.2802   8.4769   9.3092  10.1469  10.5759
    10.7457  11.1430  11.8722  12.3419  13.5071  13.5569  13.6543  15.4274
    15.8200  17.4627  17.5855  17.6579  18.4496  18.4757  18.7192  19.4173

          k = 0.1667 0.0962 0.0000 ( 13961 PWs)   bands (ev):

   -15.5349 -14.4524  -7.0226  -5.0788  -4.6382  -3.8627  -3.6885  -2.7360
    -2.0648   0.6893   1.0685   1.1272   1.9400   4.5110   4.6709   5.4395
     6.4570   6.6919   7.6738   8.3644   8.5732   9.1912  10.0619  10.5369
    10.5405  11.2081  11.7948  12.4525  13.5158  13.5789  13.8395  15.3310
    15.7238  17.4730  17.9080  18.0583  18.2399  18.5458  18.9524  19.6667

          k = 0.1500 0.0866 0.0000 ( 13959 PWs)   bands (ev):

   -15.6098 -14.4902  -7.0907  -4.9628  -4.5023  -3.9426  -3.5975  -2.7176
    -2.0034   0.7750   1.0569   1.1891   1.8497   4.4111   4.5702   5.3359
     6.3613   6.5098   7.5455   8.4629   8.5817   9.0801  10.0687  10.3335
    10.4893  11.2896  11.7297  12.5458  13.5324  13.6474  14.0285  15.2479
    15.6288  17.3182  17.9206  18.0078  18.5103  18.7038  19.3404  19.8589

          k = 0.1333 0.0770 0.0000 ( 13973 PWs)   bands (ev):

   -15.6780 -14.5246  -7.1577  -4.8481  -4.3679  -4.0162  -3.5096  -2.7161
    -1.9533   0.8742   1.0641   1.2499   1.7609   4.3179   4.4790   5.2398
     6.2742   6.3106   7.4391   8.4892   8.5719   8.9935  10.1409  10.1703
    10.4272  11.3733  11.6761  12.6003  13.6207  13.7093  14.2152  15.1811
    15.5369  17.1086  17.6928  17.7976  18.8283  19.1610  19.6258  19.8929

          k = 0.1167 0.0674 0.0000 ( 13963 PWs)   bands (ev):

   -15.7391 -14.5555  -7.2210  -4.7377  -4.2353  -4.0827  -3.4263  -2.7323
    -1.9138   0.9827   1.0881   1.3083   1.6755   4.2315   4.3976   5.1513
     6.1090   6.1963   7.3505   8.3290   8.6885   8.9282   9.9630  10.3407
    10.3593  11.4479  11.6330  12.6141  13.7625  13.7767  14.3946  15.1323
    15.4498  16.8285  17.5046  17.5983  18.9699  19.5338  19.7005  19.9724

          k = 0.1000 0.0577 0.0000 ( 13985 PWs)   bands (ev):

   -15.7927 -14.5827  -7.2789  -4.6348  -4.1415  -4.1050  -3.3491  -2.7655
    -1.8837   1.0957   1.1254   1.3626   1.5955   4.1522   4.3264   5.0700
     5.9174   6.1280   7.2762   8.1439   8.8093   8.8734   9.8030  10.2889
    10.5503  11.5068  11.5992  12.6010  13.8060  13.9814  14.5623  15.1012
    15.3695  16.5048  17.3743  17.4155  19.0042  19.1859  20.2173  20.3396

          k = 0.0833 0.0481 0.0000 ( 13995 PWs)   bands (ev):

   -15.8387 -14.6059  -7.3299  -4.5420  -4.1921  -3.9777  -3.2799  -2.8143
    -1.8616   1.1716   1.2075   1.4116   1.5230   4.0804   4.2655   4.9962
     5.7454   6.0697   7.2143   7.9605   8.8257   8.9305   9.6633  10.2186
    10.7759  11.5474  11.5735  12.5751  13.8397  14.2148  14.7141  15.0858
    15.2977  16.1754  17.2538  17.2788  18.8216  19.0014  20.6131  20.7609

          k = 0.0667 0.0385 0.0000 ( 14021 PWs)   bands (ev):

   -15.8766 -14.6252  -7.3728  -4.4620  -4.2341  -3.8548  -3.2202  -2.8759
    -1.8459   1.2208   1.3120   1.4539   1.4600   4.0172   4.2153   4.9304
     5.6000   6.0216   7.1639   7.7942   8.7853   9.0478   9.5461  10.1502
    10.9997  11.5547  11.5708  12.5458  13.8646  14.4594  14.8459  15.0822
    15.2362  15.8656  17.1171  17.2032  18.4749  18.9891  20.7868  21.3109

          k = 0.0500 0.0289 0.0000 ( 14041 PWs)   bands (ev):

   -15.9063 -14.6402  -7.4070  -4.3971  -4.2671  -3.7387  -3.1716  -2.9462
    -1.8352   1.2674   1.4028   1.4086   1.4882   3.9640   4.1759   4.8742
     5.4857   5.9840   7.1246   7.6550   8.7531   9.1555   9.4531  10.0861
    11.2050  11.5415  11.5809  12.5184  13.8820  14.6980  14.9536  15.0859
    15.1866  15.5941  17.0083  17.1397  18.1649  18.9766  20.9121  21.2439

          k = 0.0333 0.0192 0.0000 ( 14035 PWs)   bands (ev):

   -15.9276 -14.6511  -7.4318  -4.3492  -4.2908  -3.6349  -3.1358  -3.0186
    -1.8284   1.3055   1.3705   1.4736   1.5135   3.9230   4.1476   4.8304
     5.4044   5.9570   7.0964   7.5504   8.7297   9.2458   9.3856  10.0305
    11.3738  11.5329  11.5828  12.4961  13.8933  14.9083  15.0336  15.0922
    15.1501  15.3791  16.9294  17.0842  17.9152  18.9672  21.0102  21.1673

          k = 0.0167 0.0096 0.0000 ( 14023 PWs)   bands (ev):

   -15.9404 -14.6576  -7.4469  -4.3198  -4.3051  -3.5550  -3.1138  -3.0801
    -1.8247   1.3305   1.3471   1.5187   1.5290   3.8970   4.1305   4.8023
     5.3563   5.9408   7.0794   7.4855   8.7154   9.3083   9.3447   9.9904
    11.4866  11.5281  11.5814  12.4812  13.8997  15.0603  15.0830  15.0976
    15.1278  15.2381  16.8817  17.0397  17.7526  18.9616  21.0775  21.1188

          k = 0.0000 0.0000 0.0000 ( 13997 PWs)   bands (ev):

   -15.9447 -14.6597  -7.4519  -4.3099  -4.3099  -3.5227  -3.1064  -3.1064
    -1.8235   1.3392   1.3392   1.5343   1.5343   3.8880   4.1248   4.7926
     5.3403   5.9354   7.0737   7.4635   8.7107   9.3310   9.3310   9.9754
    11.5266  11.5266  11.5805  12.4759  13.9017  15.0997  15.0997  15.1203
    15.1203  15.1854  16.8658  17.0211  17.6965  18.9597  21.1022  21.1022

     highest occupied, lowest unoccupied level (ev):    -1.6663    0.2005

     Writing output data file ./tmp/mos2.save/
 
     init_run     :      0.08s CPU      0.10s WALL (       1 calls)
     electrons    :     32.39s CPU     33.26s WALL (       1 calls)

     Called by init_run:
     wfcinit      :      0.00s CPU      0.00s WALL (       1 calls)
     potinit      :      0.00s CPU      0.01s WALL (       1 calls)
     hinit0       :      0.06s CPU      0.06s WALL (       1 calls)

     Called by electrons:
     c_bands      :     32.39s CPU     33.26s WALL (       1 calls)
     v_of_rho     :      0.00s CPU      0.00s WALL (       1 calls)

     Called by c_bands:
     init_us_2    :      0.00s CPU      0.01s WALL (      91 calls)
     cegterg      :     31.13s CPU     31.88s WALL (     210 calls)

     Called by *egterg:
     cdiaghg      :      6.30s CPU      6.42s WALL (    3604 calls)
     h_psi        :     21.61s CPU     21.99s WALL (    3814 calls)
     g_psi        :      0.04s CPU      0.04s WALL (    3513 calls)

     Called by h_psi:
     h_psi:calbec :      0.56s CPU      0.58s WALL (    3814 calls)
     vloc_psi     :     20.76s CPU     21.11s WALL (    3814 calls)
     add_vuspsi   :      0.26s CPU      0.27s WALL (    3814 calls)

     General routines
     calbec       :      0.55s CPU      0.57s WALL (    3814 calls)
     fft          :      0.04s CPU      0.05s WALL (       3 calls)
     fftw         :     19.99s CPU     20.33s WALL (  150370 calls)
     davcio       :      0.03s CPU      0.06s WALL (     182 calls)
 
     Parallel routines
     fft_scatt_xy :      1.58s CPU      1.60s WALL (  150373 calls)
     fft_scatt_yz :      9.45s CPU      9.62s WALL (  150373 calls)
 
     PWSCF        :     33.51s CPU     35.14s WALL

 
   This run was terminated on:  22:29: 4  12Jun2026            

=------------------------------------------------------------------------------=
   JOB DONE.
=------------------------------------------------------------------------------=
