
     Program PWSCF v.6.7MaX starts on 12Jun2026 at 22:28:23 

     This program is part of the open-source Quantum ESPRESSO suite
     for quantum simulation of materials; please cite
         "P. Giannozzi et al., J. Phys.:Condens. Matter 21 395502 (2009);
         "P. Giannozzi et al., J. Phys.:Condens. Matter 29 465901 (2017);
          URL http://www.quantum-espresso.org", 
     in publications or presentations arising from this work. More details at
     http://www.quantum-espresso.org/quote

     Parallel version (MPI), running on    32 processors

     MPI processes distributed on     1 nodes
     R & G space division:  proc/nbgrp/npool/nimage =      32
     Waiting for input...
     Reading input from standard input

     Current dimensions of program PWSCF are:
     Max number of different atomic species (ntypx) = 10
     Max number of k-points (npk) =  40000
     Max angular momentum in pseudopotentials (lmaxx) =  3

     Subspace diagonalization in iterative solution of the eigenvalue problem:
     a serial algorithm will be used

 
     Parallelization info
     --------------------
     sticks:   dense  smooth     PW     G-vecs:    dense   smooth      PW
     Min          24      24      6                 3466     3466     522
     Max          25      25      7                 3491     3491     559
     Sum         769     769    223               111239   111239   17391
 


     bravais-lattice index     =            4
     lattice parameter (alat)  =       5.9296  a.u.
     unit-cell volume          =    1150.8250 (a.u.)^3
     number of atoms/cell      =            3
     number of atomic types    =            2
     number of electrons       =        18.00
     number of Kohn-Sham states=            9
     kinetic-energy cutoff     =      80.0000  Ry
     charge density cutoff     =     320.0000  Ry
     scf convergence threshold =      1.0E-06
     mixing beta               =       0.7000
     number of iterations used =            8  plain     mixing
     Exchange-correlation= SLA-PZ-NOGX-NOGC
                           (   1   1   0   0   0   0   0)

     celldm(1)=   5.929593  celldm(2)=   0.000000  celldm(3)=   6.373881
     celldm(4)=   0.000000  celldm(5)=   0.000000  celldm(6)=   0.000000

     crystal axes: (cart. coord. in units of alat)
               a(1) = (   1.000000   0.000000   0.000000 )  
               a(2) = (  -0.500000   0.866025   0.000000 )  
               a(3) = (   0.000000   0.000000   6.373881 )  

     reciprocal axes: (cart. coord. in units 2 pi/alat)
               b(1) = (  1.000000  0.577350  0.000000 )  
               b(2) = (  0.000000  1.154701  0.000000 )  
               b(3) = (  0.000000  0.000000  0.156890 )  


     PseudoPot. # 1 for Mo read from file:
     /public3/home/a2s002871/MoS2/pseudo/Mo.pz-hgh.UPF
     MD5 check sum: ddacfae2313397baf1b67b06fa6affd0
     Pseudo is Norm-conserving, Zval =  6.0
     Generated in analytical, separable form
     Using radial grid of 1229 points,  6 beta functions with: 
                l(1) =   0
                l(2) =   0
                l(3) =   1
                l(4) =   1
                l(5) =   2
                l(6) =   2

     PseudoPot. # 2 for S  read from file:
     /public3/home/a2s002871/MoS2/pseudo/S.pz-hgh.UPF
     MD5 check sum: 38f9f902ee430b58f9df3cf2bf519617
     Pseudo is Norm-conserving, Zval =  6.0
     Generated in analytical, separable form
     Using radial grid of 1151 points,  3 beta functions with: 
                l(1) =   0
                l(2) =   0
                l(3) =   1

     atomic species   valence    mass     pseudopotential
        Mo             6.00    95.94000     Mo( 1.00)
        S              6.00    32.06500     S ( 1.00)

     12 Sym. Ops. (no inversion) found



   Cartesian axes

     site n.     atom                  positions (alat units)
         1           Mo  tau(   1) = (   0.0000000   0.0000000   3.1869406  )
         2           S   tau(   2) = (  -0.0000000   0.5773503   2.6888676  )
         3           S   tau(   3) = (  -0.0000000   0.5773503   3.6850130  )

     number of k points=     7
                       cart. coord. in units 2pi/alat
        k(    1) = (   0.0000000   0.0000000   0.0000000), wk =   0.0555556
        k(    2) = (   0.0000000   0.1924501   0.0000000), wk =   0.3333333
        k(    3) = (   0.0000000   0.3849002   0.0000000), wk =   0.3333333
        k(    4) = (   0.0000000  -0.5773503   0.0000000), wk =   0.1666667
        k(    5) = (   0.1666667   0.2886751   0.0000000), wk =   0.3333333
        k(    6) = (   0.1666667   0.4811252   0.0000000), wk =   0.6666667
        k(    7) = (   0.3333333   0.5773503   0.0000000), wk =   0.1111111

     Dense  grid:   111239 G-vectors     FFT dimensions: (  36,  36, 216)

     Estimated max dynamical RAM per process >       6.08 MB

     Estimated total dynamical RAM >     194.60 MB

     Initial potential from superposition of free atoms

     starting charge   15.99930, renormalised to   18.00000

     negative rho (up, down):  2.410E-06 0.000E+00
     Starting wfcs are   27 randomized atomic wfcs

     total cpu time spent up to now is        0.5 secs

     Self-consistent Calculation

     iteration #  1     ecut=    80.00 Ry     beta= 0.70
     Davidson diagonalization with overlap
     ethr =  1.00E-02,  avg # of iterations =  2.0

     total cpu time spent up to now is        0.6 secs

     total energy              =     -56.47634196 Ry
     estimated scf accuracy    <       1.19806583 Ry

     iteration #  2     ecut=    80.00 Ry     beta= 0.70
     Davidson diagonalization with overlap
     ethr =  6.66E-03,  avg # of iterations =  7.1

     total cpu time spent up to now is        0.7 secs

     total energy              =     -56.20672804 Ry
     estimated scf accuracy    <       9.08592073 Ry

     iteration #  3     ecut=    80.00 Ry     beta= 0.70
     Davidson diagonalization with overlap
     ethr =  6.66E-03,  avg # of iterations =  3.9

     total cpu time spent up to now is        0.8 secs

     total energy              =     -57.05477779 Ry
     estimated scf accuracy    <       0.35183057 Ry

     iteration #  4     ecut=    80.00 Ry     beta= 0.70
     Davidson diagonalization with overlap
     ethr =  1.95E-03,  avg # of iterations =  5.4

     total cpu time spent up to now is        0.9 secs

     total energy              =     -57.21962036 Ry
     estimated scf accuracy    <       0.30243630 Ry

     iteration #  5     ecut=    80.00 Ry     beta= 0.70
     Davidson diagonalization with overlap
     ethr =  1.68E-03,  avg # of iterations =  2.1

     total cpu time spent up to now is        1.0 secs

     total energy              =     -57.22269276 Ry
     estimated scf accuracy    <       0.06399099 Ry

     iteration #  6     ecut=    80.00 Ry     beta= 0.70
     Davidson diagonalization with overlap
     ethr =  3.56E-04,  avg # of iterations =  4.9

     total cpu time spent up to now is        1.1 secs

     total energy              =     -57.25200118 Ry
     estimated scf accuracy    <       0.02613320 Ry

     iteration #  7     ecut=    80.00 Ry     beta= 0.70
     Davidson diagonalization with overlap
     ethr =  1.45E-04,  avg # of iterations =  1.1

     total cpu time spent up to now is        1.2 secs

     total energy              =     -57.24745453 Ry
     estimated scf accuracy    <       0.01845379 Ry

     iteration #  8     ecut=    80.00 Ry     beta= 0.70
     Davidson diagonalization with overlap
     ethr =  1.03E-04,  avg # of iterations =  2.9

     negative rho (up, down):  8.148E-07 0.000E+00

     total cpu time spent up to now is        1.2 secs

     total energy              =     -57.25041305 Ry
     estimated scf accuracy    <       0.00089776 Ry

     iteration #  9     ecut=    80.00 Ry     beta= 0.70
     Davidson diagonalization with overlap
     ethr =  4.99E-06,  avg # of iterations =  5.7

     negative rho (up, down):  1.182E-06 0.000E+00

     total cpu time spent up to now is        1.3 secs

     total energy              =     -57.25106952 Ry
     estimated scf accuracy    <       0.00020035 Ry

     iteration # 10     ecut=    80.00 Ry     beta= 0.70
     Davidson diagonalization with overlap
     ethr =  1.11E-06,  avg # of iterations =  4.1

     negative rho (up, down):  2.751E-08 0.000E+00

     total cpu time spent up to now is        1.4 secs

     total energy              =     -57.25114146 Ry
     estimated scf accuracy    <       0.00002130 Ry

     iteration # 11     ecut=    80.00 Ry     beta= 0.70
     Davidson diagonalization with overlap
     ethr =  1.18E-07,  avg # of iterations =  6.7

     total cpu time spent up to now is        1.5 secs

     total energy              =     -57.25091966 Ry
     estimated scf accuracy    <       0.00035371 Ry

     iteration # 12     ecut=    80.00 Ry     beta= 0.70
     Davidson diagonalization with overlap
     ethr =  1.18E-07,  avg # of iterations = 10.7

     total cpu time spent up to now is        1.7 secs

     total energy              =     -57.25128945 Ry
     estimated scf accuracy    <       0.00320036 Ry

     iteration # 13     ecut=    80.00 Ry     beta= 0.70
     Davidson diagonalization with overlap
     ethr =  1.18E-07,  avg # of iterations =  5.9

     total cpu time spent up to now is        1.9 secs

     total energy              =     -57.25113293 Ry
     estimated scf accuracy    <       0.00158033 Ry

     iteration # 14     ecut=    80.00 Ry     beta= 0.70
     Davidson diagonalization with overlap
     ethr =  1.18E-07,  avg # of iterations =  6.4

     total cpu time spent up to now is        2.0 secs

     total energy              =     -57.25127499 Ry
     estimated scf accuracy    <       0.00044419 Ry

     iteration # 15     ecut=    80.00 Ry     beta= 0.70
     Davidson diagonalization with overlap
     ethr =  1.18E-07,  avg # of iterations =  5.3

     total cpu time spent up to now is        2.1 secs

     total energy              =     -57.25129645 Ry
     estimated scf accuracy    <       0.00101723 Ry

     iteration # 16     ecut=    80.00 Ry     beta= 0.70
     Davidson diagonalization with overlap
     ethr =  1.18E-07,  avg # of iterations =  1.9

     total cpu time spent up to now is        2.2 secs

     total energy              =     -57.25112841 Ry
     estimated scf accuracy    <       0.00104086 Ry

     iteration # 17     ecut=    80.00 Ry     beta= 0.70
     Davidson diagonalization with overlap
     ethr =  1.18E-07,  avg # of iterations =  6.0

     total cpu time spent up to now is        2.3 secs

     total energy              =     -57.25118949 Ry
     estimated scf accuracy    <       0.00029501 Ry

     iteration # 18     ecut=    80.00 Ry     beta= 0.70
     Davidson diagonalization with overlap
     ethr =  1.18E-07,  avg # of iterations =  1.9

     total cpu time spent up to now is        2.3 secs

     total energy              =     -57.25124210 Ry
     estimated scf accuracy    <       0.00037233 Ry

     iteration # 19     ecut=    80.00 Ry     beta= 0.70
     Davidson diagonalization with overlap
     ethr =  1.18E-07,  avg # of iterations =  5.0

     total cpu time spent up to now is        2.4 secs

     total energy              =     -57.25128129 Ry
     estimated scf accuracy    <       0.00074610 Ry

     iteration # 20     ecut=    80.00 Ry     beta= 0.70
     Davidson diagonalization with overlap
     ethr =  1.18E-07,  avg # of iterations =  2.4

     total cpu time spent up to now is        2.5 secs

     total energy              =     -57.25119423 Ry
     estimated scf accuracy    <       0.00093072 Ry

     iteration # 21     ecut=    80.00 Ry     beta= 0.70
     Davidson diagonalization with overlap
     ethr =  1.18E-07,  avg # of iterations =  3.3

     total cpu time spent up to now is        2.6 secs

     total energy              =     -57.25117558 Ry
     estimated scf accuracy    <       0.00059243 Ry

     iteration # 22     ecut=    80.00 Ry     beta= 0.70
     Davidson diagonalization with overlap
     ethr =  1.18E-07,  avg # of iterations =  3.6

     negative rho (up, down):  1.009E-07 0.000E+00

     total cpu time spent up to now is        2.7 secs

     total energy              =     -57.25088614 Ry
     estimated scf accuracy    <       0.00041589 Ry

     iteration # 23     ecut=    80.00 Ry     beta= 0.70
     Davidson diagonalization with overlap
     ethr =  1.18E-07,  avg # of iterations = 10.3

     negative rho (up, down):  6.680E-08 0.000E+00

     total cpu time spent up to now is        2.9 secs

     total energy              =     -57.25133998 Ry
     estimated scf accuracy    <       0.00264283 Ry

     iteration # 24     ecut=    80.00 Ry     beta= 0.70
     Davidson diagonalization with overlap
     ethr =  1.18E-07,  avg # of iterations =  4.3

     total cpu time spent up to now is        3.0 secs

     total energy              =     -57.25070873 Ry
     estimated scf accuracy    <       0.00173227 Ry

     iteration # 25     ecut=    80.00 Ry     beta= 0.70
     Davidson diagonalization with overlap
     ethr =  1.18E-07,  avg # of iterations = 10.1

     total cpu time spent up to now is        3.2 secs

     total energy              =     -57.25103758 Ry
     estimated scf accuracy    <       0.00044611 Ry

     iteration # 26     ecut=    80.00 Ry     beta= 0.70
     Davidson diagonalization with overlap
     ethr =  1.18E-07,  avg # of iterations =  7.4

     total cpu time spent up to now is        3.3 secs

     total energy              =     -57.25113364 Ry
     estimated scf accuracy    <       0.00005443 Ry

     iteration # 27     ecut=    80.00 Ry     beta= 0.70
     Davidson diagonalization with overlap
     ethr =  1.18E-07,  avg # of iterations =  1.3

     total cpu time spent up to now is        3.4 secs

     total energy              =     -57.25112649 Ry
     estimated scf accuracy    <       0.00003543 Ry

     iteration # 28     ecut=    80.00 Ry     beta= 0.70
     Davidson diagonalization with overlap
     ethr =  1.18E-07,  avg # of iterations =  3.3

     total cpu time spent up to now is        3.4 secs

     total energy              =     -57.25112847 Ry
     estimated scf accuracy    <       0.00000343 Ry

     iteration # 29     ecut=    80.00 Ry     beta= 0.70
     Davidson diagonalization with overlap
     ethr =  1.91E-08,  avg # of iterations =  6.0

     total cpu time spent up to now is        3.5 secs

     total energy              =     -57.25113112 Ry
     estimated scf accuracy    <       0.00000561 Ry

     iteration # 30     ecut=    80.00 Ry     beta= 0.70
     Davidson diagonalization with overlap
     ethr =  1.91E-08,  avg # of iterations =  1.0

     total cpu time spent up to now is        3.6 secs

     total energy              =     -57.25112993 Ry
     estimated scf accuracy    <       0.00000395 Ry

     iteration # 31     ecut=    80.00 Ry     beta= 0.70
     Davidson diagonalization with overlap
     ethr =  1.91E-08,  avg # of iterations =  3.4

     total cpu time spent up to now is        3.7 secs

     End of self-consistent calculation

          k = 0.0000 0.0000 0.0000 ( 13997 PWs)   bands (ev):

   -15.9450 -14.6599  -7.4522  -4.3103  -4.3103  -3.5229  -3.1066  -3.1066
    -1.8236

          k = 0.0000 0.1925 0.0000 ( 13961 PWs)   bands (ev):

   -15.5352 -14.4526  -7.0229  -5.0791  -4.6384  -3.8630  -3.6887  -2.7362
    -2.0649

          k = 0.0000 0.3849 0.0000 ( 13876 PWs)   bands (ev):

   -14.5590 -13.9709  -7.0636  -5.9864  -5.6484  -4.5325  -3.3282  -2.9332
    -2.7383

          k = 0.0000-0.5774 0.0000 ( 13882 PWs)   bands (ev):

   -13.9369 -13.6814  -7.6524  -6.6628  -5.8572  -4.8693  -3.5974  -2.5016
    -2.3672

          k = 0.1667 0.2887 0.0000 ( 13925 PWs)   bands (ev):

   -14.8331 -14.0990  -6.7444  -5.5320  -5.4046  -4.9331  -3.6317  -2.7017
    -2.5024

          k = 0.1667 0.4811 0.0000 ( 13884 PWs)   bands (ev):

   -13.9671 -13.6665  -7.1697  -6.7151  -5.5787  -4.9776  -4.0638  -3.4187
    -2.1526

          k = 0.3333 0.5774 0.0000 ( 13902 PWs)   bands (ev):

   -13.6519 -13.4802  -7.2499  -6.4249  -5.9086  -5.2607  -4.6978  -3.8585
    -1.6667

     highest occupied level (ev):    -1.6667

!    total energy              =     -57.25113066 Ry
     estimated scf accuracy    <          2.5E-09 Ry

     The total energy is the sum of the following terms:
     one-electron contribution =    -471.77630490 Ry
     hartree contribution      =     240.01739569 Ry
     xc contribution           =     -13.16627480 Ry
     ewald contribution        =     187.67405334 Ry

     convergence has been achieved in  31 iterations

     Writing output data file ./tmp/mos2.save/
 
     init_run     :      0.13s CPU      0.28s WALL (       1 calls)
     electrons    :      3.06s CPU      3.19s WALL (       1 calls)

     Called by init_run:
     wfcinit      :      0.06s CPU      0.14s WALL (       1 calls)
     potinit      :      0.01s CPU      0.02s WALL (       1 calls)
     hinit0       :      0.04s CPU      0.07s WALL (       1 calls)

     Called by electrons:
     c_bands      :      2.65s CPU      2.74s WALL (      31 calls)
     sum_band     :      0.34s CPU      0.35s WALL (      31 calls)
     v_of_rho     :      0.02s CPU      0.03s WALL (      32 calls)
     mix_rho      :      0.03s CPU      0.04s WALL (      31 calls)

     Called by c_bands:
     init_us_2    :      0.03s CPU      0.04s WALL (     441 calls)
     cegterg      :      2.56s CPU      2.62s WALL (     217 calls)

     Called by *egterg:
     cdiaghg      :      0.11s CPU      0.17s WALL (    1235 calls)
     h_psi        :      2.27s CPU      2.33s WALL (    1242 calls)
     g_psi        :      0.00s CPU      0.00s WALL (    1018 calls)

     Called by h_psi:
     h_psi:calbec :      0.11s CPU      0.11s WALL (    1242 calls)
     vloc_psi     :      2.11s CPU      2.17s WALL (    1242 calls)
     add_vuspsi   :      0.04s CPU      0.04s WALL (    1242 calls)

     General routines
     calbec       :      0.10s CPU      0.11s WALL (    1242 calls)
     fft          :      0.05s CPU      0.08s WALL (      95 calls)
     ffts         :      0.01s CPU      0.01s WALL (      31 calls)
     fftw         :      2.31s CPU      2.37s WALL (   17175 calls)
 
     Parallel routines
     fft_scatt_xy :      0.20s CPU      0.20s WALL (   17301 calls)
     fft_scatt_yz :      1.13s CPU      1.16s WALL (   17301 calls)
 
     PWSCF        :      3.25s CPU      3.81s WALL

 
   This run was terminated on:  22:28:27  12Jun2026            

=------------------------------------------------------------------------------=
   JOB DONE.
=------------------------------------------------------------------------------=
