
     Program PWSCF v.6.7MaX starts on 12Jun2026 at 23: 0:33 

     This program is part of the open-source Quantum ESPRESSO suite
     for quantum simulation of materials; please cite
         "P. Giannozzi et al., J. Phys.:Condens. Matter 21 395502 (2009);
         "P. Giannozzi et al., J. Phys.:Condens. Matter 29 465901 (2017);
          URL http://www.quantum-espresso.org", 
     in publications or presentations arising from this work. More details at
     http://www.quantum-espresso.org/quote

     Parallel version (MPI), running on    48 processors

     MPI processes distributed on     1 nodes
     R & G space division:  proc/nbgrp/npool/nimage =      48
     Waiting for input...
     Reading input from standard input

     Current dimensions of program PWSCF are:
     Max number of different atomic species (ntypx) = 10
     Max number of k-points (npk) =  40000
     Max angular momentum in pseudopotentials (lmaxx) =  3

     Subspace diagonalization in iterative solution of the eigenvalue problem:
     a serial algorithm will be used

 
     Parallelization info
     --------------------
     sticks:   dense  smooth     PW     G-vecs:    dense   smooth      PW
     Min          16      16      5                 2392     2392     365
     Max          17      17      6                 2423     2423     393
     Sum         805     805    241               115655   115655   18103
 


     bravais-lattice index     =            4
     lattice parameter (alat)  =       6.0471  a.u.
     unit-cell volume          =    1196.8981 (a.u.)^3
     number of atoms/cell      =            3
     number of atomic types    =            2
     number of electrons       =        18.00
     number of Kohn-Sham states=            9
     kinetic-energy cutoff     =      80.0000  Ry
     charge density cutoff     =     320.0000  Ry
     scf convergence threshold =      1.0E-08
     mixing beta               =       0.3000
     number of iterations used =            8  plain     mixing
     energy convergence thresh.=      1.0E-05
     force convergence thresh. =      1.0E-04
     press convergence thresh. =      5.0E-01
     Exchange-correlation= SLA-PZ-NOGX-NOGC
                           (   1   1   0   0   0   0   0)
     nstep                     =           50


     celldm(1)=   6.047124  celldm(2)=   0.000000  celldm(3)=   6.250000
     celldm(4)=   0.000000  celldm(5)=   0.000000  celldm(6)=   0.000000

     crystal axes: (cart. coord. in units of alat)
               a(1) = (   1.000000   0.000000   0.000000 )  
               a(2) = (  -0.500000   0.866025   0.000000 )  
               a(3) = (   0.000000   0.000000   6.250000 )  

     reciprocal axes: (cart. coord. in units 2 pi/alat)
               b(1) = (  1.000000  0.577350  0.000000 )  
               b(2) = (  0.000000  1.154701  0.000000 )  
               b(3) = (  0.000000  0.000000  0.160000 )  


     PseudoPot. # 1 for Mo read from file:
     /public3/home/a2s002871/MoS2/pseudo/Mo.pz-hgh.UPF
     MD5 check sum: ddacfae2313397baf1b67b06fa6affd0
     Pseudo is Norm-conserving, Zval =  6.0
     Generated in analytical, separable form
     Using radial grid of 1229 points,  6 beta functions with: 
                l(1) =   0
                l(2) =   0
                l(3) =   1
                l(4) =   1
                l(5) =   2
                l(6) =   2

     PseudoPot. # 2 for S  read from file:
     /public3/home/a2s002871/MoS2/pseudo/S.pz-hgh.UPF
     MD5 check sum: 38f9f902ee430b58f9df3cf2bf519617
     Pseudo is Norm-conserving, Zval =  6.0
     Generated in analytical, separable form
     Using radial grid of 1151 points,  3 beta functions with: 
                l(1) =   0
                l(2) =   0
                l(3) =   1

     atomic species   valence    mass     pseudopotential
        Mo             6.00    95.94000     Mo( 1.00)
        S              6.00    32.06500     S ( 1.00)

     12 Sym. Ops. (no inversion) found



   Cartesian axes

     site n.     atom                  positions (alat units)
         1           Mo  tau(   1) = (   0.0000000   0.0000000   3.1250000  )
         2           S   tau(   2) = (  -0.0000000   0.5773503   2.6250000  )
         3           S   tau(   3) = (  -0.0000000   0.5773503   3.6250000  )

     number of k points=    19
                       cart. coord. in units 2pi/alat
        k(    1) = (   0.0000000   0.0000000   0.0000000), wk =   0.0138889
        k(    2) = (   0.0000000   0.0962250   0.0000000), wk =   0.0833333
        k(    3) = (   0.0000000   0.1924501   0.0000000), wk =   0.0833333
        k(    4) = (   0.0000000   0.2886751   0.0000000), wk =   0.0833333
        k(    5) = (   0.0000000   0.3849002   0.0000000), wk =   0.0833333
        k(    6) = (   0.0000000   0.4811252   0.0000000), wk =   0.0833333
        k(    7) = (   0.0000000  -0.5773503   0.0000000), wk =   0.0416667
        k(    8) = (   0.0833333   0.1443376   0.0000000), wk =   0.0833333
        k(    9) = (   0.0833333   0.2405626   0.0000000), wk =   0.1666667
        k(   10) = (   0.0833333   0.3367877   0.0000000), wk =   0.1666667
        k(   11) = (   0.0833333   0.4330127   0.0000000), wk =   0.1666667
        k(   12) = (   0.0833333   0.5292377   0.0000000), wk =   0.1666667
        k(   13) = (   0.1666667   0.2886751   0.0000000), wk =   0.0833333
        k(   14) = (   0.1666667   0.3849002   0.0000000), wk =   0.1666667
        k(   15) = (   0.1666667   0.4811252   0.0000000), wk =   0.1666667
        k(   16) = (   0.1666667   0.5773503   0.0000000), wk =   0.0833333
        k(   17) = (   0.2500000   0.4330127   0.0000000), wk =   0.0833333
        k(   18) = (   0.2500000   0.5292377   0.0000000), wk =   0.1666667
        k(   19) = (   0.3333333   0.5773503   0.0000000), wk =   0.0277778

     Dense  grid:   115655 G-vectors     FFT dimensions: (  36,  36, 216)

     Estimated max dynamical RAM per process >       8.49 MB

     Estimated total dynamical RAM >     407.45 MB

     Initial potential from superposition of free atoms

     starting charge   15.99930, renormalised to   18.00000

     negative rho (up, down):  2.646E-06 0.000E+00
     Starting wfcs are   27 randomized atomic wfcs

     total cpu time spent up to now is        0.6 secs

     Self-consistent Calculation

     iteration #  1     ecut=    80.00 Ry     beta= 0.30
     Davidson diagonalization with overlap
     ethr =  1.00E-02,  avg # of iterations =  2.0

     total cpu time spent up to now is        0.8 secs

     total energy              =     -56.81519846 Ry
     estimated scf accuracy    <       1.45785098 Ry

     iteration #  2     ecut=    80.00 Ry     beta= 0.30
     Davidson diagonalization with overlap
     ethr =  8.10E-03,  avg # of iterations =  3.8

     total cpu time spent up to now is        1.0 secs

     total energy              =     -57.23300991 Ry
     estimated scf accuracy    <       0.24747415 Ry

     iteration #  3     ecut=    80.00 Ry     beta= 0.30
     Davidson diagonalization with overlap
     ethr =  1.37E-03,  avg # of iterations =  2.3

     total cpu time spent up to now is        1.2 secs

     total energy              =     -57.17859745 Ry
     estimated scf accuracy    <       0.13417738 Ry

     iteration #  4     ecut=    80.00 Ry     beta= 0.30
     Davidson diagonalization with overlap
     ethr =  7.45E-04,  avg # of iterations =  4.9

     total cpu time spent up to now is        1.4 secs

     total energy              =     -57.24946244 Ry
     estimated scf accuracy    <       0.21539806 Ry

     iteration #  5     ecut=    80.00 Ry     beta= 0.30
     Davidson diagonalization with overlap
     ethr =  7.45E-04,  avg # of iterations =  1.2

     total cpu time spent up to now is        1.6 secs

     total energy              =     -57.21658719 Ry
     estimated scf accuracy    <       0.12860695 Ry

     iteration #  6     ecut=    80.00 Ry     beta= 0.30
     Davidson diagonalization with overlap
     ethr =  7.14E-04,  avg # of iterations =  3.2

     total cpu time spent up to now is        1.8 secs

     total energy              =     -57.24101488 Ry
     estimated scf accuracy    <       0.00077353 Ry

     iteration #  7     ecut=    80.00 Ry     beta= 0.30
     Davidson diagonalization with overlap
     ethr =  4.30E-06,  avg # of iterations = 10.2

     total cpu time spent up to now is        2.2 secs

     total energy              =     -57.24753525 Ry
     estimated scf accuracy    <       0.00199904 Ry

     iteration #  8     ecut=    80.00 Ry     beta= 0.30
     Davidson diagonalization with overlap
     ethr =  4.30E-06,  avg # of iterations =  8.9

     total cpu time spent up to now is        2.7 secs

     total energy              =     -57.23849467 Ry
     estimated scf accuracy    <       0.06115996 Ry

     iteration #  9     ecut=    80.00 Ry     beta= 0.30
     Davidson diagonalization with overlap
     ethr =  4.30E-06,  avg # of iterations =  8.5

     total cpu time spent up to now is        3.1 secs

     total energy              =     -57.24409644 Ry
     estimated scf accuracy    <       0.00120444 Ry

     iteration # 10     ecut=    80.00 Ry     beta= 0.30
     Davidson diagonalization with overlap
     ethr =  4.30E-06,  avg # of iterations =  4.2

     total cpu time spent up to now is        3.3 secs

     total energy              =     -57.24406017 Ry
     estimated scf accuracy    <       0.00055892 Ry

     iteration # 11     ecut=    80.00 Ry     beta= 0.30
     Davidson diagonalization with overlap
     ethr =  3.11E-06,  avg # of iterations =  6.7

     total cpu time spent up to now is        3.7 secs

     total energy              =     -57.24352507 Ry
     estimated scf accuracy    <       0.00640779 Ry

     iteration # 12     ecut=    80.00 Ry     beta= 0.30
     Davidson diagonalization with overlap
     ethr =  3.11E-06,  avg # of iterations =  6.1

     total cpu time spent up to now is        4.0 secs

     total energy              =     -57.24421709 Ry
     estimated scf accuracy    <       0.00008412 Ry

     iteration # 13     ecut=    80.00 Ry     beta= 0.30
     Davidson diagonalization with overlap
     ethr =  4.67E-07,  avg # of iterations =  6.2

     total cpu time spent up to now is        4.3 secs

     total energy              =     -57.24426462 Ry
     estimated scf accuracy    <       0.00013743 Ry

     iteration # 14     ecut=    80.00 Ry     beta= 0.30
     Davidson diagonalization with overlap
     ethr =  4.67E-07,  avg # of iterations =  2.3

     total cpu time spent up to now is        4.4 secs

     total energy              =     -57.24426052 Ry
     estimated scf accuracy    <       0.00002008 Ry

     iteration # 15     ecut=    80.00 Ry     beta= 0.30
     Davidson diagonalization with overlap
     ethr =  1.12E-07,  avg # of iterations =  8.0

     total cpu time spent up to now is        4.8 secs

     total energy              =     -57.24429247 Ry
     estimated scf accuracy    <       0.00048315 Ry

     iteration # 16     ecut=    80.00 Ry     beta= 0.30
     Davidson diagonalization with overlap
     ethr =  1.12E-07,  avg # of iterations =  4.0

     total cpu time spent up to now is        5.1 secs

     total energy              =     -57.24428009 Ry
     estimated scf accuracy    <       0.00022922 Ry

     iteration # 17     ecut=    80.00 Ry     beta= 0.30
     Davidson diagonalization with overlap
     ethr =  1.12E-07,  avg # of iterations =  3.8

     total cpu time spent up to now is        5.3 secs

     total energy              =     -57.24427380 Ry
     estimated scf accuracy    <       0.00009872 Ry

     iteration # 18     ecut=    80.00 Ry     beta= 0.30
     Davidson diagonalization with overlap
     ethr =  1.12E-07,  avg # of iterations =  4.2

     total cpu time spent up to now is        5.5 secs

     total energy              =     -57.24427554 Ry
     estimated scf accuracy    <       0.00002392 Ry

     iteration # 19     ecut=    80.00 Ry     beta= 0.30
     Davidson diagonalization with overlap
     ethr =  1.12E-07,  avg # of iterations =  2.4

     total cpu time spent up to now is        5.7 secs

     total energy              =     -57.24427703 Ry
     estimated scf accuracy    <       0.00000506 Ry

     iteration # 20     ecut=    80.00 Ry     beta= 0.30
     Davidson diagonalization with overlap
     ethr =  2.81E-08,  avg # of iterations =  5.1

     total cpu time spent up to now is        5.9 secs

     total energy              =     -57.24427933 Ry
     estimated scf accuracy    <       0.00000038 Ry

     iteration # 21     ecut=    80.00 Ry     beta= 0.30
     Davidson diagonalization with overlap
     ethr =  2.10E-09,  avg # of iterations =  5.6

     total cpu time spent up to now is        6.2 secs

     total energy              =     -57.24427985 Ry
     estimated scf accuracy    <       0.00000237 Ry

     iteration # 22     ecut=    80.00 Ry     beta= 0.30
     Davidson diagonalization with overlap
     ethr =  2.10E-09,  avg # of iterations =  2.3

     total cpu time spent up to now is        6.4 secs

     total energy              =     -57.24428000 Ry
     estimated scf accuracy    <       0.00000359 Ry

     iteration # 23     ecut=    80.00 Ry     beta= 0.30
     Davidson diagonalization with overlap
     ethr =  2.10E-09,  avg # of iterations =  1.3

     total cpu time spent up to now is        6.5 secs

     total energy              =     -57.24427971 Ry
     estimated scf accuracy    <       0.00000420 Ry

     iteration # 24     ecut=    80.00 Ry     beta= 0.30
     Davidson diagonalization with overlap
     ethr =  2.10E-09,  avg # of iterations =  1.1

     total cpu time spent up to now is        6.7 secs

     total energy              =     -57.24427905 Ry
     estimated scf accuracy    <       0.00000358 Ry

     iteration # 25     ecut=    80.00 Ry     beta= 0.30
     Davidson diagonalization with overlap
     ethr =  2.10E-09,  avg # of iterations =  3.9

     total cpu time spent up to now is        6.9 secs

     total energy              =     -57.24427928 Ry
     estimated scf accuracy    <       0.00000060 Ry

     iteration # 26     ecut=    80.00 Ry     beta= 0.30
     Davidson diagonalization with overlap
     ethr =  2.10E-09,  avg # of iterations =  1.0

     total cpu time spent up to now is        7.1 secs

     total energy              =     -57.24427914 Ry
     estimated scf accuracy    <       0.00000058 Ry

     iteration # 27     ecut=    80.00 Ry     beta= 0.30
     Davidson diagonalization with overlap
     ethr =  2.10E-09,  avg # of iterations =  3.5

     total cpu time spent up to now is        7.3 secs

     total energy              =     -57.24427929 Ry
     estimated scf accuracy    <       0.00000002 Ry

     iteration # 28     ecut=    80.00 Ry     beta= 0.30
     Davidson diagonalization with overlap
     ethr =  8.45E-11,  avg # of iterations =  9.1

     total cpu time spent up to now is        7.7 secs

     total energy              =     -57.24427925 Ry
     estimated scf accuracy    <       0.00000084 Ry

     iteration # 29     ecut=    80.00 Ry     beta= 0.30
     Davidson diagonalization with overlap
     ethr =  8.45E-11,  avg # of iterations =  6.1

     total cpu time spent up to now is        8.0 secs

     total energy              =     -57.24427923 Ry
     estimated scf accuracy    <       0.00000024 Ry

     iteration # 30     ecut=    80.00 Ry     beta= 0.30
     Davidson diagonalization with overlap
     ethr =  8.45E-11,  avg # of iterations =  6.5

     total cpu time spent up to now is        8.3 secs

     End of self-consistent calculation

          k = 0.0000 0.0000 0.0000 ( 14489 PWs)   bands (ev):

   -15.7518 -14.6175  -7.3061  -4.2702  -4.2702  -3.6243  -3.1748  -3.1748
    -1.9723

          k = 0.0000 0.0962 0.0000 ( 14511 PWs)   bands (ev):

   -15.6549 -14.5658  -7.1892  -4.4971  -4.1642  -4.0139  -3.3355  -2.9447
    -2.0135

          k = 0.0000 0.1925 0.0000 ( 14489 PWs)   bands (ev):

   -15.3777 -14.4183  -6.8883  -5.0355  -4.6176  -3.8692  -3.7154  -2.9055
    -2.2136

          k = 0.0000 0.2887 0.0000 ( 14477 PWs)   bands (ev):

   -14.9631 -14.2000  -6.6410  -5.5444  -5.2696  -4.1430  -3.4568  -3.1748
    -2.5982

          k = 0.0000 0.3849 0.0000 ( 14465 PWs)   bands (ev):

   -14.4920 -13.9574  -6.8865  -5.9028  -5.6642  -4.5041  -3.4780  -3.0475
    -2.8177

          k = 0.0000 0.4811 0.0000 ( 14461 PWs)   bands (ev):

   -14.0953 -13.7598  -7.3061  -6.3807  -5.7273  -4.7391  -3.6646  -2.7674
    -2.6500

          k = 0.0000-0.5774 0.0000 ( 14462 PWs)   bands (ev):

   -13.9350 -13.6822  -7.4872  -6.5601  -5.7837  -4.8201  -3.7237  -2.6734
    -2.4912

          k = 0.0833 0.1443 0.0000 ( 14513 PWs)   bands (ev):

   -15.4678 -14.4661  -6.9772  -4.8718  -4.4114  -3.9728  -3.7145  -2.7877
    -2.1345

          k = 0.0833 0.2406 0.0000 ( 14513 PWs)   bands (ev):

   -15.1209 -14.2822  -6.6728  -5.3795  -4.9344  -4.2635  -3.6724  -2.8444
    -2.4347

          k = 0.0833 0.3368 0.0000 ( 14475 PWs)   bands (ev):

   -14.6745 -14.0485  -6.6699  -5.6165  -5.5892  -4.6302  -3.4592  -3.1501
    -2.6714

          k = 0.0833 0.4330 0.0000 ( 14462 PWs)   bands (ev):

   -14.2324 -13.8224  -7.0484  -6.2008  -5.6363  -4.8004  -3.4815  -3.3734
    -2.5316

          k = 0.0833 0.5292 0.0000 ( 14437 PWs)   bands (ev):

   -13.9439 -13.6791  -7.3464  -6.5629  -5.7306  -4.8589  -3.6833  -3.2541
    -2.3003

          k = 0.1667 0.2887 0.0000 ( 14491 PWs)   bands (ev):

   -14.7398 -14.0805  -6.5697  -5.5680  -5.3371  -4.8941  -3.6839  -2.8980
    -2.6097

          k = 0.1667 0.3849 0.0000 ( 14456 PWs)   bands (ev):

   -14.3131 -13.8559  -6.7787  -6.0286  -5.4829  -5.0217  -3.9852  -3.2058
    -2.5228

          k = 0.1667 0.4811 0.0000 ( 14446 PWs)   bands (ev):

   -13.9614 -13.6728  -7.0147  -6.5641  -5.5642  -4.9575  -4.1196  -3.5686
    -2.2758

          k = 0.1667 0.5774 0.0000 ( 14404 PWs)   bands (ev):

   -13.8220 -13.6009  -7.1068  -6.7600  -5.6681  -4.8949  -4.1199  -3.7405
    -2.1077

          k = 0.2500 0.4330 0.0000 ( 14433 PWs)   bands (ev):

   -13.9701 -13.6696  -6.8124  -6.5622  -5.3526  -5.0144  -4.6694  -3.4965
    -2.2929

          k = 0.2500 0.5292 0.0000 ( 14414 PWs)   bands (ev):

   -13.7567 -13.5516  -6.8978  -6.7151  -5.5473  -4.9717  -4.8529  -3.8149
    -1.9968

          k = 0.3333 0.5774 0.0000 ( 14436 PWs)   bands (ev):

   -13.6807 -13.5043  -7.0308  -6.3334  -5.8121  -5.2957  -4.7311  -3.9845
    -1.8181

     highest occupied level (ev):    -1.8181

!    total energy              =     -57.24427925 Ry
     estimated scf accuracy    <          2.9E-09 Ry

     The total energy is the sum of the following terms:
     one-electron contribution =    -448.33744690 Ry
     hartree contribution      =     228.21270382 Ry
     xc contribution           =     -13.03573775 Ry
     ewald contribution        =     175.91620157 Ry

     convergence has been achieved in  30 iterations

     Forces acting on atoms (cartesian axes, Ry/au):

     atom    1 type  1   force =     0.00000000    0.00000000    0.00000000
     atom    2 type  2   force =     0.00000000    0.00000000    0.03986365
     atom    3 type  2   force =     0.00000000    0.00000000   -0.03986365

     Total force =     0.056376     Total SCF correction =     0.000117


     Computing stress (Cartesian axis) and pressure

          total   stress  (Ry/bohr**3)                   (kbar)     P=      -27.02
  -0.00017320  -0.00000000   0.00000000          -25.48       -0.00        0.00
   0.00000000  -0.00017320   0.00000000            0.00      -25.48        0.00
   0.00000000  -0.00000000  -0.00020463            0.00       -0.00      -30.10


     BFGS Geometry Optimization
     Energy error            =      0.0E+00
     Gradient error          =      4.0E-02
     Cell gradient error     =      1.7E-04


     number of scf cycles    =   1
     number of bfgs steps    =   0

     enthalpy new            =     -57.2442792533 Ry

     new trust radius        =       0.0398636512 bohr
     new conv_thr            =       0.0000000100 Ry

     new unit-cell volume =   1186.55519 a.u.^3 (   175.82934 Ang^3 )
     density =      1.51171 g/cm^3

CELL_PARAMETERS (alat=  6.04712360)
   0.995669902   0.000000000   0.000000000
  -0.497834951   0.862275429   0.000000000
   0.000000000   0.000000000   6.250000000

ATOMIC_POSITIONS (crystal)
Mo            0.0000000000        0.0000000000        0.5000000000
S             0.3333333333        0.6666666667        0.4210547468
S             0.3333333333        0.6666666667        0.5789452532



     Writing output data file ./tmp/mos2.save/
     NEW-OLD atomic charge density approx. for the potential

     negative rho (up, down):  1.017E-06 0.000E+00
     extrapolated charge   17.86054, renormalised to   18.00000

     total cpu time spent up to now is        8.5 secs

     Self-consistent Calculation

     iteration #  1     ecut=    80.00 Ry     beta= 0.30
     Davidson diagonalization with overlap
     ethr =  1.00E-06,  avg # of iterations = 17.4

     negative rho (up, down):  5.709E-07 0.000E+00

     total cpu time spent up to now is        9.4 secs

     total energy              =     -57.17857657 Ry
     estimated scf accuracy    <       0.12526488 Ry

     iteration #  2     ecut=    80.00 Ry     beta= 0.30
     Davidson diagonalization with overlap
     ethr =  6.96E-04,  avg # of iterations =  4.7

     negative rho (up, down):  4.182E-07 0.000E+00

     total cpu time spent up to now is        9.6 secs

     total energy              =     -57.24470537 Ry
     estimated scf accuracy    <       0.17819229 Ry

     iteration #  3     ecut=    80.00 Ry     beta= 0.30
     Davidson diagonalization with overlap
     ethr =  6.96E-04,  avg # of iterations =  1.6

     negative rho (up, down):  4.677E-07 0.000E+00

     total cpu time spent up to now is        9.8 secs

     total energy              =     -57.25630375 Ry
     estimated scf accuracy    <       0.07809445 Ry

     iteration #  4     ecut=    80.00 Ry     beta= 0.30
     Davidson diagonalization with overlap
     ethr =  4.34E-04,  avg # of iterations =  1.0

     negative rho (up, down):  2.767E-07 0.000E+00

     total cpu time spent up to now is        9.9 secs

     total energy              =     -57.23084151 Ry
     estimated scf accuracy    <       0.08235924 Ry

     iteration #  5     ecut=    80.00 Ry     beta= 0.30
     Davidson diagonalization with overlap
     ethr =  4.34E-04,  avg # of iterations =  3.2

     negative rho (up, down):  2.223E-07 0.000E+00

     total cpu time spent up to now is       10.1 secs

     total energy              =     -57.24726773 Ry
     estimated scf accuracy    <       0.00011461 Ry

     iteration #  6     ecut=    80.00 Ry     beta= 0.30
     Davidson diagonalization with overlap
     ethr =  6.37E-07,  avg # of iterations =  9.7

     negative rho (up, down):  2.067E-07 0.000E+00

     total cpu time spent up to now is       10.6 secs

     total energy              =     -57.24845319 Ry
     estimated scf accuracy    <       0.00015581 Ry

     iteration #  7     ecut=    80.00 Ry     beta= 0.30
     Davidson diagonalization with overlap
     ethr =  6.37E-07,  avg # of iterations =  6.4

     negative rho (up, down):  5.489E-08 0.000E+00

     total cpu time spent up to now is       10.9 secs

     total energy              =     -57.24801630 Ry
     estimated scf accuracy    <       0.00174461 Ry

     iteration #  8     ecut=    80.00 Ry     beta= 0.30
     Davidson diagonalization with overlap
     ethr =  6.37E-07,  avg # of iterations =  7.1

     total cpu time spent up to now is       11.3 secs

     total energy              =     -57.24834319 Ry
     estimated scf accuracy    <       0.00008792 Ry

     iteration #  9     ecut=    80.00 Ry     beta= 0.30
     Davidson diagonalization with overlap
     ethr =  4.88E-07,  avg # of iterations =  1.5

     total cpu time spent up to now is       11.4 secs

     total energy              =     -57.24832412 Ry
     estimated scf accuracy    <       0.00003889 Ry

     iteration # 10     ecut=    80.00 Ry     beta= 0.30
     Davidson diagonalization with overlap
     ethr =  2.16E-07,  avg # of iterations =  6.2

     total cpu time spent up to now is       11.7 secs

     total energy              =     -57.24835116 Ry
     estimated scf accuracy    <       0.00009584 Ry

     iteration # 11     ecut=    80.00 Ry     beta= 0.30
     Davidson diagonalization with overlap
     ethr =  2.16E-07,  avg # of iterations =  1.2

     total cpu time spent up to now is       11.8 secs

     total energy              =     -57.24833196 Ry
     estimated scf accuracy    <       0.00006538 Ry

     iteration # 12     ecut=    80.00 Ry     beta= 0.30
     Davidson diagonalization with overlap
     ethr =  2.16E-07,  avg # of iterations =  3.7

     total cpu time spent up to now is       12.1 secs

     total energy              =     -57.24834454 Ry
     estimated scf accuracy    <       0.00000025 Ry

     iteration # 13     ecut=    80.00 Ry     beta= 0.30
     Davidson diagonalization with overlap
     ethr =  1.40E-09,  avg # of iterations =  9.1

     total cpu time spent up to now is       12.4 secs

     total energy              =     -57.24834565 Ry
     estimated scf accuracy    <       0.00000018 Ry

     iteration # 14     ecut=    80.00 Ry     beta= 0.30
     Davidson diagonalization with overlap
     ethr =  1.01E-09,  avg # of iterations =  5.0

     total cpu time spent up to now is       12.7 secs

     total energy              =     -57.24834546 Ry
     estimated scf accuracy    <       0.00000122 Ry

     iteration # 15     ecut=    80.00 Ry     beta= 0.30
     Davidson diagonalization with overlap
     ethr =  1.01E-09,  avg # of iterations =  4.4

     total cpu time spent up to now is       12.9 secs

     total energy              =     -57.24834537 Ry
     estimated scf accuracy    <       0.00000022 Ry

     iteration # 16     ecut=    80.00 Ry     beta= 0.30
     Davidson diagonalization with overlap
     ethr =  1.01E-09,  avg # of iterations =  7.7

     total cpu time spent up to now is       13.3 secs

     total energy              =     -57.24834592 Ry
     estimated scf accuracy    <       0.00000377 Ry

     iteration # 17     ecut=    80.00 Ry     beta= 0.30
     Davidson diagonalization with overlap
     ethr =  1.01E-09,  avg # of iterations =  1.5

     total cpu time spent up to now is       13.5 secs

     total energy              =     -57.24834576 Ry
     estimated scf accuracy    <       0.00000313 Ry

     iteration # 18     ecut=    80.00 Ry     beta= 0.30
     Davidson diagonalization with overlap
     ethr =  1.01E-09,  avg # of iterations =  2.4

     total cpu time spent up to now is       13.6 secs

     total energy              =     -57.24834575 Ry
     estimated scf accuracy    <       0.00000230 Ry

     iteration # 19     ecut=    80.00 Ry     beta= 0.30
     Davidson diagonalization with overlap
     ethr =  1.01E-09,  avg # of iterations =  1.0

     total cpu time spent up to now is       13.8 secs

     total energy              =     -57.24834589 Ry
     estimated scf accuracy    <       0.00000212 Ry

     iteration # 20     ecut=    80.00 Ry     beta= 0.30
     Davidson diagonalization with overlap
     ethr =  1.01E-09,  avg # of iterations =  1.0

     total cpu time spent up to now is       13.9 secs

     total energy              =     -57.24834513 Ry
     estimated scf accuracy    <       0.00000242 Ry

     iteration # 21     ecut=    80.00 Ry     beta= 0.30
     Davidson diagonalization with overlap
     ethr =  1.01E-09,  avg # of iterations =  6.5

     total cpu time spent up to now is       14.2 secs

     total energy              =     -57.24834552 Ry
     estimated scf accuracy    <       0.00000002 Ry

     iteration # 22     ecut=    80.00 Ry     beta= 0.30
     Davidson diagonalization with overlap
     ethr =  1.31E-10,  avg # of iterations =  5.7

     total cpu time spent up to now is       14.5 secs

     total energy              =     -57.24834553 Ry
     estimated scf accuracy    <       0.00000001 Ry

     iteration # 23     ecut=    80.00 Ry     beta= 0.30
     Davidson diagonalization with overlap
     ethr =  6.89E-11,  avg # of iterations =  2.8

     total cpu time spent up to now is       14.7 secs

     End of self-consistent calculation

          k = 0.0000 0.0000 0.0000 ( 14489 PWs)   bands (ev):

   -15.8427 -14.6354  -7.3782  -4.3573  -4.3573  -3.5767  -3.2207  -3.2207
    -1.9019

          k = 0.0000 0.0966 0.0000 ( 14511 PWs)   bands (ev):

   -15.7436 -14.5841  -7.2612  -4.5831  -4.2482  -4.0185  -3.3843  -2.9357
    -1.9467

          k = 0.0000 0.1933 0.0000 ( 14489 PWs)   bands (ev):

   -15.4602 -14.4381  -6.9629  -5.1122  -4.6492  -3.9435  -3.7708  -2.8650
    -2.1603

          k = 0.0000 0.2899 0.0000 ( 14477 PWs)   bands (ev):

   -15.0364 -14.2220  -6.7335  -5.5895  -5.3135  -4.2058  -3.5150  -3.1217
    -2.5696

          k = 0.0000 0.3866 0.0000 ( 14465 PWs)   bands (ev):

   -14.5550 -13.9820  -6.9842  -5.9486  -5.6923  -4.5728  -3.4251  -3.0845
    -2.8078

          k = 0.0000 0.4832 0.0000 ( 14461 PWs)   bands (ev):

   -14.1497 -13.7868  -7.3890  -6.4242  -5.7719  -4.8116  -3.6150  -2.7847
    -2.6369

          k = 0.0000-0.5799 0.0000 ( 14462 PWs)   bands (ev):

   -13.9860 -13.7102  -7.5636  -6.6024  -5.8384  -4.8939  -3.6756  -2.6826
    -2.4714

          k = 0.0837 0.1450 0.0000 ( 14513 PWs)   bands (ev):

   -15.5523 -14.4854  -7.0502  -4.9529  -4.4351  -4.0500  -3.7662  -2.7572
    -2.0763

          k = 0.0837 0.2416 0.0000 ( 14513 PWs)   bands (ev):

   -15.1977 -14.3033  -6.7559  -5.4402  -4.9743  -4.3169  -3.7348  -2.7988
    -2.3979

          k = 0.0837 0.3383 0.0000 ( 14475 PWs)   bands (ev):

   -14.7414 -14.0720  -6.7715  -5.6431  -5.6394  -4.6843  -3.4966  -3.1011
    -2.6659

          k = 0.0837 0.4349 0.0000 ( 14462 PWs)   bands (ev):

   -14.2897 -13.8482  -7.1380  -6.2539  -5.6694  -4.8575  -3.4335  -3.3907
    -2.5349

          k = 0.0837 0.5315 0.0000 ( 14437 PWs)   bands (ev):

   -13.9950 -13.7064  -7.4229  -6.6164  -5.7818  -4.9187  -3.6360  -3.2587
    -2.2955

          k = 0.1674 0.2899 0.0000 ( 14491 PWs)   bands (ev):

   -14.8081 -14.1034  -6.6713  -5.5963  -5.3953  -4.9367  -3.7229  -2.8469
    -2.6029

          k = 0.1674 0.3866 0.0000 ( 14456 PWs)   bands (ev):

   -14.3720 -13.8806  -6.8751  -6.0993  -5.5009  -5.0570  -4.0153  -3.1552
    -2.5292

          k = 0.1674 0.4832 0.0000 ( 14446 PWs)   bands (ev):

   -14.0128 -13.6988  -7.0938  -6.6401  -5.6023  -4.9899  -4.1388  -3.5214
    -2.2779

          k = 0.1674 0.5799 0.0000 ( 14404 PWs)   bands (ev):

   -13.8703 -13.6273  -7.1765  -6.8378  -5.7209  -4.9270  -4.1321  -3.6941
    -2.1041

          k = 0.2511 0.4349 0.0000 ( 14433 PWs)   bands (ev):

   -14.0216 -13.6949  -6.8953  -6.6499  -5.3692  -5.0337  -4.7083  -3.4481
    -2.2976

          k = 0.2511 0.5315 0.0000 ( 14414 PWs)   bands (ev):

   -13.8036 -13.5769  -6.9936  -6.7809  -5.5935  -4.9974  -4.8633  -3.7705
    -1.9923

          k = 0.3348 0.5799 0.0000 ( 14436 PWs)   bands (ev):

   -13.7260 -13.5292  -7.1336  -6.3838  -5.8729  -5.3233  -4.7325  -3.9428
    -1.8060

     highest occupied level (ev):    -1.8060

!    total energy              =     -57.24834553 Ry
     estimated scf accuracy    <          1.3E-09 Ry

     The total energy is the sum of the following terms:
     one-electron contribution =    -455.40688725 Ry
     hartree contribution      =     231.75533780 Ry
     xc contribution           =     -13.08034262 Ry
     ewald contribution        =     179.48354653 Ry

     convergence has been achieved in  23 iterations

     Forces acting on atoms (cartesian axes, Ry/au):

     atom    1 type  1   force =     0.00000000   -0.00000000    0.00000000
     atom    2 type  2   force =     0.00000000   -0.00000000    0.02320068
     atom    3 type  2   force =     0.00000000   -0.00000000   -0.02320068

     Total force =     0.032811     Total SCF correction =     0.000074


     Computing stress (Cartesian axis) and pressure

          total   stress  (Ry/bohr**3)                   (kbar)     P=      -18.05
  -0.00012414  -0.00000000   0.00000000          -18.26       -0.00        0.00
  -0.00000000  -0.00012414   0.00000000           -0.00      -18.26        0.00
   0.00000000   0.00000000  -0.00011981            0.00        0.00      -17.62

     Energy error            =      4.1E-03
     Gradient error          =      2.3E-02
     Cell gradient error     =      1.2E-04


     number of scf cycles    =   2
     number of bfgs steps    =   1

     enthalpy old            =     -57.2442792533 Ry
     enthalpy new            =     -57.2483455300 Ry

     CASE: enthalpy_new < enthalpy_old

     new trust radius        =       0.0438500164 bohr
     new conv_thr            =       0.0000000100 Ry

     new unit-cell volume =   1172.72221 a.u.^3 (   173.77950 Ang^3 )
     density =      1.52954 g/cm^3

CELL_PARAMETERS (alat=  6.04712360)
   0.989849079  -0.000000000   0.000000000
  -0.494924539   0.857234448   0.000000000
   0.000000000   0.000000000   6.250000000

ATOMIC_POSITIONS (crystal)
Mo            0.0000000000       -0.0000000000        0.5000000000
S             0.3333333333        0.6666666667        0.4222149683
S             0.3333333333        0.6666666667        0.5777850317



     Writing output data file ./tmp/mos2.save/
     NEW-OLD atomic charge density approx. for the potential

     negative rho (up, down):  6.091E-07 0.000E+00
     extrapolated charge   17.81128, renormalised to   18.00000

     total cpu time spent up to now is       14.8 secs

     Self-consistent Calculation

     iteration #  1     ecut=    80.00 Ry     beta= 0.30
     Davidson diagonalization with overlap
     c_bands:  1 eigenvalues not converged
     c_bands:  1 eigenvalues not converged
     c_bands:  1 eigenvalues not converged
     ethr =  1.00E-06,  avg # of iterations = 18.5

     negative rho (up, down):  4.198E-07 0.000E+00

     total cpu time spent up to now is       15.7 secs

     total energy              =     -57.13782341 Ry
     estimated scf accuracy    <       0.19671324 Ry

     iteration #  2     ecut=    80.00 Ry     beta= 0.30
     Davidson diagonalization with overlap
     ethr =  1.09E-03,  avg # of iterations =  4.8

     negative rho (up, down):  3.481E-07 0.000E+00

     total cpu time spent up to now is       16.0 secs

     total energy              =     -57.24582965 Ry
     estimated scf accuracy    <       0.28284772 Ry

     iteration #  3     ecut=    80.00 Ry     beta= 0.30
     Davidson diagonalization with overlap
     ethr =  1.09E-03,  avg # of iterations =  1.6

     negative rho (up, down):  3.650E-07 0.000E+00

     total cpu time spent up to now is       16.1 secs

     total energy              =     -57.26130613 Ry
     estimated scf accuracy    <       0.12465487 Ry

     iteration #  4     ecut=    80.00 Ry     beta= 0.30
     Davidson diagonalization with overlap
     ethr =  6.93E-04,  avg # of iterations =  1.0

     negative rho (up, down):  3.511E-07 0.000E+00

     total cpu time spent up to now is       16.3 secs

     total energy              =     -57.24505050 Ry
     estimated scf accuracy    <       0.12431939 Ry

     iteration #  5     ecut=    80.00 Ry     beta= 0.30
     Davidson diagonalization with overlap
     ethr =  6.91E-04,  avg # of iterations =  1.4

     negative rho (up, down):  2.878E-07 0.000E+00

     total cpu time spent up to now is       16.4 secs

     total energy              =     -57.23950224 Ry
     estimated scf accuracy    <       0.04692996 Ry

     iteration #  6     ecut=    80.00 Ry     beta= 0.30
     Davidson diagonalization with overlap
     ethr =  2.61E-04,  avg # of iterations =  3.7

     negative rho (up, down):  2.459E-07 0.000E+00

     total cpu time spent up to now is       16.6 secs

     total energy              =     -57.24855956 Ry
     estimated scf accuracy    <       0.00156558 Ry

     iteration #  7     ecut=    80.00 Ry     beta= 0.30
     Davidson diagonalization with overlap
     ethr =  8.70E-06,  avg # of iterations =  6.7

     negative rho (up, down):  2.555E-07 0.000E+00

     total cpu time spent up to now is       16.9 secs

     total energy              =     -57.25184693 Ry
     estimated scf accuracy    <       0.00320519 Ry

     iteration #  8     ecut=    80.00 Ry     beta= 0.30
     Davidson diagonalization with overlap
     ethr =  8.70E-06,  avg # of iterations =  1.9

     negative rho (up, down):  2.362E-07 0.000E+00

     total cpu time spent up to now is       17.1 secs

     total energy              =     -57.25030269 Ry
     estimated scf accuracy    <       0.00612517 Ry

     iteration #  9     ecut=    80.00 Ry     beta= 0.30
     Davidson diagonalization with overlap
     ethr =  8.70E-06,  avg # of iterations =  3.3

     negative rho (up, down):  1.893E-07 0.000E+00

     total cpu time spent up to now is       17.3 secs

     total energy              =     -57.25010537 Ry
     estimated scf accuracy    <       0.00117580 Ry

     iteration # 10     ecut=    80.00 Ry     beta= 0.30
     Davidson diagonalization with overlap
     ethr =  6.53E-06,  avg # of iterations =  7.7

     negative rho (up, down):  3.947E-08 0.000E+00

     total cpu time spent up to now is       17.7 secs

     total energy              =     -57.27534243 Ry
     estimated scf accuracy    <       0.02382609 Ry

     iteration # 11     ecut=    80.00 Ry     beta= 0.30
     Davidson diagonalization with overlap
     ethr =  6.53E-06,  avg # of iterations =  9.6

     negative rho (up, down):  2.881E-08 0.000E+00

     total cpu time spent up to now is       18.2 secs

     total energy              =     -57.25842060 Ry
     estimated scf accuracy    <       0.28121289 Ry

     iteration # 12     ecut=    80.00 Ry     beta= 0.30
     Davidson diagonalization with overlap
     ethr =  6.53E-06,  avg # of iterations =  7.8

     negative rho (up, down):  1.796E-08 0.000E+00

     total cpu time spent up to now is       18.6 secs

     total energy              =     -57.24365408 Ry
     estimated scf accuracy    <       0.10111334 Ry

     iteration # 13     ecut=    80.00 Ry     beta= 0.30
     Davidson diagonalization with overlap
     ethr =  6.53E-06,  avg # of iterations =  8.7

     total cpu time spent up to now is       19.0 secs

     total energy              =     -57.25072645 Ry
     estimated scf accuracy    <       0.00621524 Ry

     iteration # 14     ecut=    80.00 Ry     beta= 0.30
     Davidson diagonalization with overlap
     ethr =  6.53E-06,  avg # of iterations =  3.2

     negative rho (up, down):  1.207E-08 0.000E+00

     total cpu time spent up to now is       19.2 secs

     total energy              =     -57.25087166 Ry
     estimated scf accuracy    <       0.00270830 Ry

     iteration # 15     ecut=    80.00 Ry     beta= 0.30
     Davidson diagonalization with overlap
     ethr =  6.53E-06,  avg # of iterations =  1.0

     total cpu time spent up to now is       19.3 secs

     total energy              =     -57.25064032 Ry
     estimated scf accuracy    <       0.00233341 Ry

     iteration # 16     ecut=    80.00 Ry     beta= 0.30
     Davidson diagonalization with overlap
     ethr =  6.53E-06,  avg # of iterations =  1.5

     negative rho (up, down):  1.267E-08 0.000E+00

     total cpu time spent up to now is       19.5 secs

     total energy              =     -57.25087971 Ry
     estimated scf accuracy    <       0.00120296 Ry

     iteration # 17     ecut=    80.00 Ry     beta= 0.30
     Davidson diagonalization with overlap
     ethr =  6.53E-06,  avg # of iterations =  1.0

     total cpu time spent up to now is       19.6 secs

     total energy              =     -57.25073967 Ry
     estimated scf accuracy    <       0.00149774 Ry

     iteration # 18     ecut=    80.00 Ry     beta= 0.30
     Davidson diagonalization with overlap
     ethr =  6.53E-06,  avg # of iterations =  1.2

     total cpu time spent up to now is       19.8 secs

     total energy              =     -57.25037082 Ry
     estimated scf accuracy    <       0.00083987 Ry

     iteration # 19     ecut=    80.00 Ry     beta= 0.30
     Davidson diagonalization with overlap
     ethr =  4.67E-06,  avg # of iterations =  5.6

     total cpu time spent up to now is       20.1 secs

     total energy              =     -57.25067441 Ry
     estimated scf accuracy    <       0.00075141 Ry

     iteration # 20     ecut=    80.00 Ry     beta= 0.30
     Davidson diagonalization with overlap
     ethr =  4.17E-06,  avg # of iterations =  2.0

     total cpu time spent up to now is       20.2 secs

     total energy              =     -57.25071585 Ry
     estimated scf accuracy    <       0.00017940 Ry

     iteration # 21     ecut=    80.00 Ry     beta= 0.30
     Davidson diagonalization with overlap
     ethr =  9.97E-07,  avg # of iterations =  3.6

     total cpu time spent up to now is       20.4 secs

     total energy              =     -57.25073546 Ry
     estimated scf accuracy    <       0.00004355 Ry

     iteration # 22     ecut=    80.00 Ry     beta= 0.30
     Davidson diagonalization with overlap
     ethr =  2.42E-07,  avg # of iterations =  4.6

     total cpu time spent up to now is       20.6 secs

     total energy              =     -57.25075033 Ry
     estimated scf accuracy    <       0.00000044 Ry

     iteration # 23     ecut=    80.00 Ry     beta= 0.30
     Davidson diagonalization with overlap
     ethr =  2.43E-09,  avg # of iterations = 11.2

     total cpu time spent up to now is       21.2 secs

     total energy              =     -57.25074830 Ry
     estimated scf accuracy    <       0.00002792 Ry

     iteration # 24     ecut=    80.00 Ry     beta= 0.30
     Davidson diagonalization with overlap
     ethr =  2.43E-09,  avg # of iterations =  8.5

     total cpu time spent up to now is       21.6 secs

     total energy              =     -57.25075179 Ry
     estimated scf accuracy    <       0.00000023 Ry

     iteration # 25     ecut=    80.00 Ry     beta= 0.30
     Davidson diagonalization with overlap
     ethr =  1.28E-09,  avg # of iterations =  3.8

     total cpu time spent up to now is       21.8 secs

     total energy              =     -57.25075149 Ry
     estimated scf accuracy    <       0.00000078 Ry

     iteration # 26     ecut=    80.00 Ry     beta= 0.30
     Davidson diagonalization with overlap
     ethr =  1.28E-09,  avg # of iterations =  6.3

     total cpu time spent up to now is       22.1 secs

     total energy              =     -57.25075173 Ry
     estimated scf accuracy    <       0.00000087 Ry

     iteration # 27     ecut=    80.00 Ry     beta= 0.30
     Davidson diagonalization with overlap
     ethr =  1.28E-09,  avg # of iterations =  1.3

     total cpu time spent up to now is       22.2 secs

     total energy              =     -57.25075137 Ry
     estimated scf accuracy    <       0.00000064 Ry

     iteration # 28     ecut=    80.00 Ry     beta= 0.30
     Davidson diagonalization with overlap
     ethr =  1.28E-09,  avg # of iterations =  6.5

     total cpu time spent up to now is       22.6 secs

     total energy              =     -57.25075168 Ry
     estimated scf accuracy    <       0.00000115 Ry

     iteration # 29     ecut=    80.00 Ry     beta= 0.30
     Davidson diagonalization with overlap
     ethr =  1.28E-09,  avg # of iterations =  2.4

     total cpu time spent up to now is       22.7 secs

     total energy              =     -57.25075152 Ry
     estimated scf accuracy    <       0.00000058 Ry

     iteration # 30     ecut=    80.00 Ry     beta= 0.30
     Davidson diagonalization with overlap
     ethr =  1.28E-09,  avg # of iterations =  5.2

     total cpu time spent up to now is       23.0 secs

     total energy              =     -57.25075166 Ry
     estimated scf accuracy    <       0.00000004 Ry

     iteration # 31     ecut=    80.00 Ry     beta= 0.30
     Davidson diagonalization with overlap
     ethr =  1.95E-10,  avg # of iterations =  3.3

     total cpu time spent up to now is       23.2 secs

     End of self-consistent calculation

          k = 0.0000 0.0000 0.0000 ( 14489 PWs)   bands (ev):

   -15.9505 -14.6558  -7.4648  -4.4507  -4.4507  -3.5206  -3.2626  -3.2626
    -1.8206

          k = 0.0000 0.0972 0.0000 ( 14511 PWs)   bands (ev):

   -15.8485 -14.6049  -7.3472  -4.6753  -4.3374  -4.0252  -3.4300  -2.9123
    -1.8684

          k = 0.0000 0.1944 0.0000 ( 14489 PWs)   bands (ev):

   -15.5567 -14.4602  -7.0515  -5.1942  -4.6844  -4.0200  -3.8254  -2.8095
    -2.0955

          k = 0.0000 0.2916 0.0000 ( 14477 PWs)   bands (ev):

   -15.1205 -14.2460  -6.8422  -5.6353  -5.3626  -4.2699  -3.5709  -3.0546
    -2.5326

          k = 0.0000 0.3888 0.0000 ( 14465 PWs)   bands (ev):

   -14.6252 -14.0083  -7.0975  -6.0006  -5.7201  -4.6448  -3.3599  -3.1141
    -2.7931

          k = 0.0000 0.4861 0.0000 ( 14461 PWs)   bands (ev):

   -14.2082 -13.8151  -7.4858  -6.4746  -5.8204  -4.8885  -3.5543  -2.7906
    -2.6176

          k =-0.0000-0.5833 0.0000 ( 14462 PWs)   bands (ev):

   -14.0396 -13.7393  -7.6528  -6.6516  -5.8997  -4.9725  -3.6168  -2.6788
    -2.4437

          k = 0.0842 0.1458 0.0000 ( 14513 PWs)   bands (ev):

   -15.6515 -14.5070  -7.1371  -5.0400  -4.4618  -4.1303  -3.8170  -2.7109
    -2.0063

          k = 0.0842 0.2430 0.0000 ( 14513 PWs)   bands (ev):

   -15.2865 -14.3265  -6.8543  -5.5035  -5.0186  -4.3724  -3.7967  -2.7367
    -2.3509

          k = 0.0842 0.3402 0.0000 ( 14475 PWs)   bands (ev):

   -14.8170 -14.0971  -6.8890  -5.6960  -5.6688  -4.7421  -3.5305  -3.0367
    -2.6530

          k = 0.0842 0.4375 0.0000 ( 14462 PWs)   bands (ev):

   -14.3522 -13.8753  -7.2422  -6.3154  -5.7030  -4.9182  -3.4021  -3.3724
    -2.5308

          k = 0.0842 0.5347 0.0000 ( 14437 PWs)   bands (ev):

   -14.0488 -13.7347  -7.5122  -6.6792  -5.8384  -4.9815  -3.5773  -3.2538
    -2.2822

          k = 0.1684 0.2916 0.0000 ( 14491 PWs)   bands (ev):

   -14.8855 -14.1280  -6.7887  -5.6237  -5.4602  -4.9829  -3.7594  -2.7784
    -2.5882

          k = 0.1684 0.3888 0.0000 ( 14456 PWs)   bands (ev):

   -14.4367 -13.9065  -6.9865  -6.1803  -5.5157  -5.0949  -4.0432  -3.0889
    -2.5293

          k = 0.1684 0.4861 0.0000 ( 14446 PWs)   bands (ev):

   -14.0670 -13.7253  -7.1857  -6.7292  -5.6418  -5.0231  -4.1531  -3.4609
    -2.2734

          k = 0.1684 0.5833 0.0000 ( 14404 PWs)   bands (ev):

   -13.9203 -13.6539  -7.2573  -6.9297  -5.7791  -4.9586  -4.1373  -3.6359
    -2.0930

          k = 0.2526 0.4375 0.0000 ( 14433 PWs)   bands (ev):

   -14.0759 -13.7206  -6.9914  -6.7519  -5.3807  -5.0530  -4.7489  -3.3854
    -2.2965

          k = 0.2526 0.5347 0.0000 ( 14414 PWs)   bands (ev):

   -13.8516 -13.6019  -7.1061  -6.8566  -5.6433  -5.0199  -4.8714  -3.7140
    -1.9805

          k = 0.3368 0.5833 0.0000 ( 14436 PWs)   bands (ev):

   -13.7717 -13.5533  -7.2545  -6.4404  -5.9417  -5.3477  -4.7298  -3.8900
    -1.7851

     highest occupied level (ev):    -1.7851

!    total energy              =     -57.25075166 Ry
     estimated scf accuracy    <          6.2E-09 Ry

     The total energy is the sum of the following terms:
     one-electron contribution =    -464.28532782 Ry
     hartree contribution      =     236.20896984 Ry
     xc contribution           =     -13.13522385 Ry
     ewald contribution        =     183.96083017 Ry

     convergence has been achieved in  31 iterations

     Forces acting on atoms (cartesian axes, Ry/au):

     atom    1 type  1   force =    -0.00000000   -0.00000000    0.00000000
     atom    2 type  2   force =     0.00000000    0.00000000    0.00251473
     atom    3 type  2   force =     0.00000000   -0.00000000   -0.00251473

     Total force =     0.003556     Total SCF correction =     0.000161


     Computing stress (Cartesian axis) and pressure

          total   stress  (Ry/bohr**3)                   (kbar)     P=       -6.40
  -0.00005758  -0.00000000  -0.00000000           -8.47       -0.00       -0.00
  -0.00000000  -0.00005758  -0.00000000           -0.00       -8.47       -0.00
  -0.00000000  -0.00000000  -0.00001535           -0.00       -0.00       -2.26

     Energy error            =      2.4E-03
     Gradient error          =      2.5E-03
     Cell gradient error     =      5.8E-05


     number of scf cycles    =   3
     number of bfgs steps    =   2

     enthalpy old            =     -57.2483455300 Ry
     enthalpy new            =     -57.2507516589 Ry

     CASE: enthalpy_new < enthalpy_old

     new trust radius        =       0.0216158515 bohr
     new conv_thr            =       0.0000000025 Ry

     new unit-cell volume =   1165.33154 a.u.^3 (   172.68432 Ang^3 )
     density =      1.53924 g/cm^3

CELL_PARAMETERS (alat=  6.04712360)
   0.986725059  -0.000000000   0.000000000
  -0.493362530   0.854528968   0.000000000
   0.000000000   0.000000000   6.250000000

ATOMIC_POSITIONS (crystal)
Mo           -0.0000000000       -0.0000000000        0.5000000000
S             0.3333333333        0.6666666667        0.4225454004
S             0.3333333333        0.6666666667        0.5774545996



     Writing output data file ./tmp/mos2.save/
     NEW-OLD atomic charge density approx. for the potential

     negative rho (up, down):  1.406E-07 0.000E+00
     extrapolated charge   17.89853, renormalised to   18.00000

     total cpu time spent up to now is       23.3 secs

     Self-consistent Calculation

     iteration #  1     ecut=    80.00 Ry     beta= 0.30
     Davidson diagonalization with overlap
     ethr =  1.00E-06,  avg # of iterations = 13.6

     negative rho (up, down):  9.121E-08 0.000E+00

     total cpu time spent up to now is       24.0 secs

     total energy              =     -57.22252695 Ry
     estimated scf accuracy    <       0.04646254 Ry

     iteration #  2     ecut=    80.00 Ry     beta= 0.30
     Davidson diagonalization with overlap
     ethr =  2.58E-04,  avg # of iterations =  4.9

     negative rho (up, down):  7.388E-08 0.000E+00

     total cpu time spent up to now is       24.2 secs

     total energy              =     -57.25014247 Ry
     estimated scf accuracy    <       0.07375329 Ry

     iteration #  3     ecut=    80.00 Ry     beta= 0.30
     Davidson diagonalization with overlap
     ethr =  2.58E-04,  avg # of iterations =  1.7

     negative rho (up, down):  7.731E-08 0.000E+00

     total cpu time spent up to now is       24.4 secs

     total energy              =     -57.25386201 Ry
     estimated scf accuracy    <       0.03306728 Ry

     iteration #  4     ecut=    80.00 Ry     beta= 0.30
     Davidson diagonalization with overlap
     ethr =  1.84E-04,  avg # of iterations =  1.0

     negative rho (up, down):  7.370E-08 0.000E+00

     total cpu time spent up to now is       24.5 secs

     total energy              =     -57.25014175 Ry
     estimated scf accuracy    <       0.03258206 Ry

     iteration #  5     ecut=    80.00 Ry     beta= 0.30
     Davidson diagonalization with overlap
     ethr =  1.81E-04,  avg # of iterations =  1.2

     negative rho (up, down):  5.216E-08 0.000E+00

     total cpu time spent up to now is       24.7 secs

     total energy              =     -57.24767930 Ry
     estimated scf accuracy    <       0.01432620 Ry

     iteration #  6     ecut=    80.00 Ry     beta= 0.30
     Davidson diagonalization with overlap
     ethr =  7.96E-05,  avg # of iterations =  3.4

     negative rho (up, down):  4.545E-08 0.000E+00

     total cpu time spent up to now is       24.9 secs

     total energy              =     -57.25036190 Ry
     estimated scf accuracy    <       0.00037087 Ry

     iteration #  7     ecut=    80.00 Ry     beta= 0.30
     Davidson diagonalization with overlap
     ethr =  2.06E-06,  avg # of iterations =  6.8

     negative rho (up, down):  4.574E-08 0.000E+00

     total cpu time spent up to now is       25.2 secs

     total energy              =     -57.25092652 Ry
     estimated scf accuracy    <       0.00129986 Ry

     iteration #  8     ecut=    80.00 Ry     beta= 0.30
     Davidson diagonalization with overlap
     ethr =  2.06E-06,  avg # of iterations =  3.6

     negative rho (up, down):  4.625E-08 0.000E+00

     total cpu time spent up to now is       25.4 secs

     total energy              =     -57.25120608 Ry
     estimated scf accuracy    <       0.00022555 Ry

     iteration #  9     ecut=    80.00 Ry     beta= 0.30
     Davidson diagonalization with overlap
     ethr =  1.25E-06,  avg # of iterations =  4.9

     negative rho (up, down):  2.658E-08 0.000E+00

     total cpu time spent up to now is       25.7 secs

     total energy              =     -57.25074750 Ry
     estimated scf accuracy    <       0.00162320 Ry

     iteration # 10     ecut=    80.00 Ry     beta= 0.30
     Davidson diagonalization with overlap
     ethr =  1.25E-06,  avg # of iterations =  5.9

     total cpu time spent up to now is       26.0 secs

     total energy              =     -57.25146319 Ry
     estimated scf accuracy    <       0.00011175 Ry

     iteration # 11     ecut=    80.00 Ry     beta= 0.30
     Davidson diagonalization with overlap
     ethr =  6.21E-07,  avg # of iterations =  9.5

     total cpu time spent up to now is       26.5 secs

     total energy              =     -57.25146666 Ry
     estimated scf accuracy    <       0.01158612 Ry

     iteration # 12     ecut=    80.00 Ry     beta= 0.30
     Davidson diagonalization with overlap
     ethr =  6.21E-07,  avg # of iterations =  6.3

     total cpu time spent up to now is       26.8 secs

     total energy              =     -57.25108675 Ry
     estimated scf accuracy    <       0.00499747 Ry

     iteration # 13     ecut=    80.00 Ry     beta= 0.30
     Davidson diagonalization with overlap
     ethr =  6.21E-07,  avg # of iterations =  6.2

     total cpu time spent up to now is       27.0 secs

     total energy              =     -57.25119949 Ry
     estimated scf accuracy    <       0.00169411 Ry

     iteration # 14     ecut=    80.00 Ry     beta= 0.30
     Davidson diagonalization with overlap
     ethr =  6.21E-07,  avg # of iterations =  1.2

     total cpu time spent up to now is       27.2 secs

     total energy              =     -57.25115547 Ry
     estimated scf accuracy    <       0.00151402 Ry

     iteration # 15     ecut=    80.00 Ry     beta= 0.30
     Davidson diagonalization with overlap
     ethr =  6.21E-07,  avg # of iterations =  1.7

     total cpu time spent up to now is       27.4 secs

     total energy              =     -57.25122705 Ry
     estimated scf accuracy    <       0.00127157 Ry

     iteration # 16     ecut=    80.00 Ry     beta= 0.30
     Davidson diagonalization with overlap
     ethr =  6.21E-07,  avg # of iterations =  1.0

     total cpu time spent up to now is       27.5 secs

     total energy              =     -57.25083235 Ry
     estimated scf accuracy    <       0.00139240 Ry

     iteration # 17     ecut=    80.00 Ry     beta= 0.30
     Davidson diagonalization with overlap
     ethr =  6.21E-07,  avg # of iterations =  5.7

     total cpu time spent up to now is       27.8 secs

     total energy              =     -57.25103059 Ry
     estimated scf accuracy    <       0.00000406 Ry

     iteration # 18     ecut=    80.00 Ry     beta= 0.30
     Davidson diagonalization with overlap
     ethr =  2.25E-08,  avg # of iterations =  5.7

     total cpu time spent up to now is       28.1 secs

     total energy              =     -57.25103788 Ry
     estimated scf accuracy    <       0.00001304 Ry

     iteration # 19     ecut=    80.00 Ry     beta= 0.30
     Davidson diagonalization with overlap
     ethr =  2.25E-08,  avg # of iterations =  3.9

     total cpu time spent up to now is       28.3 secs

     total energy              =     -57.25101849 Ry
     estimated scf accuracy    <       0.00003323 Ry

     iteration # 20     ecut=    80.00 Ry     beta= 0.30
     Davidson diagonalization with overlap
     ethr =  2.25E-08,  avg # of iterations =  8.2

     total cpu time spent up to now is       28.7 secs

     total energy              =     -57.25102355 Ry
     estimated scf accuracy    <       0.00007648 Ry

     iteration # 21     ecut=    80.00 Ry     beta= 0.30
     Davidson diagonalization with overlap
     ethr =  2.25E-08,  avg # of iterations =  6.7

     total cpu time spent up to now is       29.1 secs

     total energy              =     -57.25103287 Ry
     estimated scf accuracy    <       0.00000038 Ry

     iteration # 22     ecut=    80.00 Ry     beta= 0.30
     Davidson diagonalization with overlap
     ethr =  2.11E-09,  avg # of iterations =  4.9

     total cpu time spent up to now is       29.3 secs

     total energy              =     -57.25103309 Ry
     estimated scf accuracy    <          5.9E-09 Ry

     iteration # 23     ecut=    80.00 Ry     beta= 0.30
     Davidson diagonalization with overlap
     ethr =  3.30E-11,  avg # of iterations = 12.1

     total cpu time spent up to now is       29.9 secs

     total energy              =     -57.25103310 Ry
     estimated scf accuracy    <       0.00000041 Ry

     iteration # 24     ecut=    80.00 Ry     beta= 0.30
     Davidson diagonalization with overlap
     ethr =  3.30E-11,  avg # of iterations =  6.5

     total cpu time spent up to now is       30.2 secs

     total energy              =     -57.25103308 Ry
     estimated scf accuracy    <       0.00000010 Ry

     iteration # 25     ecut=    80.00 Ry     beta= 0.30
     Davidson diagonalization with overlap
     ethr =  3.30E-11,  avg # of iterations =  7.9

     total cpu time spent up to now is       30.6 secs

     total energy              =     -57.25103310 Ry
     estimated scf accuracy    <       0.00000002 Ry

     iteration # 26     ecut=    80.00 Ry     beta= 0.30
     Davidson diagonalization with overlap
     ethr =  3.30E-11,  avg # of iterations =  1.8

     total cpu time spent up to now is       30.7 secs

     total energy              =     -57.25103310 Ry
     estimated scf accuracy    <       0.00000001 Ry

     iteration # 27     ecut=    80.00 Ry     beta= 0.30
     Davidson diagonalization with overlap
     ethr =  3.30E-11,  avg # of iterations =  5.7

     total cpu time spent up to now is       31.0 secs

     total energy              =     -57.25103310 Ry
     estimated scf accuracy    <       0.00000001 Ry

     iteration # 28     ecut=    80.00 Ry     beta= 0.30
     Davidson diagonalization with overlap
     ethr =  3.30E-11,  avg # of iterations =  1.7

     total cpu time spent up to now is       31.2 secs

     total energy              =     -57.25103310 Ry
     estimated scf accuracy    <          6.4E-09 Ry

     iteration # 29     ecut=    80.00 Ry     beta= 0.30
     Davidson diagonalization with overlap
     ethr =  3.30E-11,  avg # of iterations =  3.1

     total cpu time spent up to now is       31.4 secs

     End of self-consistent calculation

          k = 0.0000 0.0000 0.0000 ( 14489 PWs)   bands (ev):

   -15.9861 -14.6630  -7.4929  -4.4646  -4.4646  -3.5023  -3.2570  -3.2570
    -1.7940

          k = 0.0000 0.0975 0.0000 ( 14511 PWs)   bands (ev):

   -15.8825 -14.6119  -7.3746  -4.6897  -4.3492  -4.0219  -3.4265  -2.8919
    -1.8414

          k = 0.0000 0.1950 0.0000 ( 14489 PWs)   bands (ev):

   -15.5864 -14.4665  -7.0784  -5.2072  -4.6905  -4.0260  -3.8265  -2.7816
    -2.0699

          k = 0.0000 0.2926 0.0000 ( 14477 PWs)   bands (ev):

   -15.1436 -14.2515  -6.8742  -5.6388  -5.3749  -4.2759  -3.5680  -3.0259
    -2.5143

          k = 0.0000 0.3901 0.0000 ( 14465 PWs)   bands (ev):

   -14.6405 -14.0126  -7.1315  -6.0161  -5.7203  -4.6548  -3.3341  -3.1011
    -2.7814

          k = 0.0000 0.4876 0.0000 ( 14461 PWs)   bands (ev):

   -14.2164 -13.8183  -7.5167  -6.4917  -5.8302  -4.9010  -3.5313  -2.7695
    -2.6024

          k =-0.0000-0.5851 0.0000 ( 14462 PWs)   bands (ev):

   -14.0449 -13.7422  -7.6824  -6.6693  -5.9151  -4.9859  -3.5947  -2.6547
    -2.4249

          k = 0.0845 0.1463 0.0000 ( 14513 PWs)   bands (ev):

   -15.6826 -14.5136  -7.1637  -5.0541  -4.4650  -4.1381  -3.8173  -2.6840
    -1.9798

          k = 0.0845 0.2438 0.0000 ( 14513 PWs)   bands (ev):

   -15.3121 -14.3322  -6.8833  -5.5117  -5.0282  -4.3779  -3.7972  -2.7060
    -2.3291

          k = 0.0845 0.3413 0.0000 ( 14475 PWs)   bands (ev):

   -14.8353 -14.1017  -6.9234  -5.7110  -5.6669  -4.7510  -3.5239  -3.0074
    -2.6387

          k = 0.0845 0.4388 0.0000 ( 14462 PWs)   bands (ev):

   -14.3629 -13.8786  -7.2742  -6.3344  -5.7061  -4.9284  -3.3909  -3.3468
    -2.5149

          k = 0.0845 0.5364 0.0000 ( 14437 PWs)   bands (ev):

   -14.0542 -13.7372  -7.5413  -6.7005  -5.8514  -4.9918  -3.5543  -3.2364
    -2.2628

          k = 0.1689 0.2926 0.0000 ( 14491 PWs)   bands (ev):

   -14.9049 -14.1327  -6.8228  -5.6216  -5.4750  -4.9922  -3.7550  -2.7456
    -2.5727

          k = 0.1689 0.3901 0.0000 ( 14456 PWs)   bands (ev):

   -14.4488 -13.9097  -7.0197  -6.2029  -5.5099  -5.1027  -4.0411  -3.0586
    -2.5150

          k = 0.1689 0.4876 0.0000 ( 14446 PWs)   bands (ev):

   -14.0727 -13.7271  -7.2145  -6.7574  -5.6470  -5.0282  -4.1462  -3.4352
    -2.2569

          k = 0.1689 0.5851 0.0000 ( 14404 PWs)   bands (ev):

   -13.9234 -13.6551  -7.2833  -6.9599  -5.7920  -4.9622  -4.1268  -3.6125
    -2.0742

          k = 0.2534 0.4388 0.0000 ( 14433 PWs)   bands (ev):

   -14.0818 -13.7220  -7.0208  -6.7834  -5.3732  -5.0558  -4.7547  -3.3578
    -2.2815

          k = 0.2534 0.5364 0.0000 ( 14414 PWs)   bands (ev):

   -13.8535 -13.6019  -7.1429  -6.8800  -5.6531  -5.0174  -4.8695  -3.6904
    -1.9617

          k = 0.3378 0.5851 0.0000 ( 14436 PWs)   bands (ev):

   -13.7722 -13.5524  -7.2946  -6.4570  -5.9605  -5.3447  -4.7244  -3.8683
    -1.7634

     highest occupied level (ev):    -1.7634

!    total energy              =     -57.25103310 Ry
     estimated scf accuracy    <          1.8E-10 Ry

     The total energy is the sum of the following terms:
     one-electron contribution =    -468.20489679 Ry
     hartree contribution      =     238.18092770 Ry
     xc contribution           =     -13.15752816 Ry
     ewald contribution        =     185.93046413 Ry

     convergence has been achieved in  29 iterations

     Forces acting on atoms (cartesian axes, Ry/au):

     atom    1 type  1   force =     0.00000000    0.00000000    0.00000000
     atom    2 type  2   force =    -0.00000000   -0.00000000   -0.00498465
     atom    3 type  2   force =     0.00000000    0.00000000    0.00498465

     Total force =     0.007049     Total SCF correction =     0.000023


     Computing stress (Cartesian axis) and pressure

          total   stress  (Ry/bohr**3)                   (kbar)     P=       -1.53
  -0.00002666  -0.00000000   0.00000000           -3.92       -0.00        0.00
  -0.00000000  -0.00002666   0.00000000           -0.00       -3.92        0.00
   0.00000000   0.00000000   0.00002207            0.00        0.00        3.25

     Energy error            =      2.8E-04
     Gradient error          =      5.0E-03
     Cell gradient error     =      2.7E-05


     number of scf cycles    =   4
     number of bfgs steps    =   3

     enthalpy old            =     -57.2507516589 Ry
     enthalpy new            =     -57.2510331034 Ry

     CASE: enthalpy_new < enthalpy_old

     new trust radius        =       0.0102469487 bohr
     new conv_thr            =       0.0000000028 Ry

     new unit-cell volume =   1161.83617 a.u.^3 (   172.16636 Ang^3 )
     density =      1.54387 g/cm^3

CELL_PARAMETERS (alat=  6.04712360)
   0.985244124  -0.000000000   0.000000000
  -0.492622062   0.853246440   0.000000000
   0.000000000   0.000000000   6.250000000

ATOMIC_POSITIONS (crystal)
Mo           -0.0000000000       -0.0000000000        0.5000000000
S             0.3333333333        0.6666666667        0.4224808267
S             0.3333333333        0.6666666667        0.5775191733



     Writing output data file ./tmp/mos2.save/
     NEW-OLD atomic charge density approx. for the potential

     negative rho (up, down):  2.646E-08 0.000E+00
     extrapolated charge   17.95187, renormalised to   18.00000

     total cpu time spent up to now is       31.5 secs

     Self-consistent Calculation

     iteration #  1     ecut=    80.00 Ry     beta= 0.30
     Davidson diagonalization with overlap
     ethr =  1.00E-06,  avg # of iterations =  9.6

     negative rho (up, down):  1.404E-08 0.000E+00

     total cpu time spent up to now is       32.0 secs

     total energy              =     -57.24626728 Ry
     estimated scf accuracy    <       0.00699001 Ry

     iteration #  2     ecut=    80.00 Ry     beta= 0.30
     Davidson diagonalization with overlap
     ethr =  3.88E-05,  avg # of iterations =  5.3

     negative rho (up, down):  1.037E-08 0.000E+00

     total cpu time spent up to now is       32.3 secs

     total energy              =     -57.25120752 Ry
     estimated scf accuracy    <       0.01284410 Ry

     iteration #  3     ecut=    80.00 Ry     beta= 0.30
     Davidson diagonalization with overlap
     ethr =  3.88E-05,  avg # of iterations =  1.7

     total cpu time spent up to now is       32.4 secs

     total energy              =     -57.25125627 Ry
     estimated scf accuracy    <       0.00612681 Ry

     iteration #  4     ecut=    80.00 Ry     beta= 0.30
     Davidson diagonalization with overlap
     ethr =  3.40E-05,  avg # of iterations =  1.0

     total cpu time spent up to now is       32.6 secs

     total energy              =     -57.25119483 Ry
     estimated scf accuracy    <       0.00438927 Ry

     iteration #  5     ecut=    80.00 Ry     beta= 0.30
     Davidson diagonalization with overlap
     ethr =  2.44E-05,  avg # of iterations =  1.0

     total cpu time spent up to now is       32.7 secs

     total energy              =     -57.25036229 Ry
     estimated scf accuracy    <       0.00339940 Ry

     iteration #  6     ecut=    80.00 Ry     beta= 0.30
     Davidson diagonalization with overlap
     ethr =  1.89E-05,  avg # of iterations =  3.8

     total cpu time spent up to now is       33.0 secs

     total energy              =     -57.25109005 Ry
     estimated scf accuracy    <       0.00005257 Ry

     iteration #  7     ecut=    80.00 Ry     beta= 0.30
     Davidson diagonalization with overlap
     ethr =  2.92E-07,  avg # of iterations =  6.4

     total cpu time spent up to now is       33.3 secs

     total energy              =     -57.25120338 Ry
     estimated scf accuracy    <       0.00014459 Ry

     iteration #  8     ecut=    80.00 Ry     beta= 0.30
     Davidson diagonalization with overlap
     ethr =  2.92E-07,  avg # of iterations =  2.8

     total cpu time spent up to now is       33.5 secs

     total energy              =     -57.25123339 Ry
     estimated scf accuracy    <       0.00030787 Ry

     iteration #  9     ecut=    80.00 Ry     beta= 0.30
     Davidson diagonalization with overlap
     ethr =  2.92E-07,  avg # of iterations =  1.8

     total cpu time spent up to now is       33.6 secs

     total energy              =     -57.25121167 Ry
     estimated scf accuracy    <       0.00041665 Ry

     iteration # 10     ecut=    80.00 Ry     beta= 0.30
     Davidson diagonalization with overlap
     ethr =  2.92E-07,  avg # of iterations =  1.0

     total cpu time spent up to now is       33.8 secs

     total energy              =     -57.25130761 Ry
     estimated scf accuracy    <       0.00038074 Ry

     iteration # 11     ecut=    80.00 Ry     beta= 0.30
     Davidson diagonalization with overlap
     ethr =  2.92E-07,  avg # of iterations =  4.7

     total cpu time spent up to now is       34.0 secs

     total energy              =     -57.25112178 Ry
     estimated scf accuracy    <       0.00108826 Ry

     iteration # 12     ecut=    80.00 Ry     beta= 0.30
     Davidson diagonalization with overlap
     ethr =  2.92E-07,  avg # of iterations =  5.1

     total cpu time spent up to now is       34.3 secs

     total energy              =     -57.25105958 Ry
     estimated scf accuracy    <       0.00027551 Ry

     iteration # 13     ecut=    80.00 Ry     beta= 0.30
     Davidson diagonalization with overlap
     ethr =  2.92E-07,  avg # of iterations =  6.2

     total cpu time spent up to now is       34.6 secs

     total energy              =     -57.25114791 Ry
     estimated scf accuracy    <       0.00004463 Ry

     iteration # 14     ecut=    80.00 Ry     beta= 0.30
     Davidson diagonalization with overlap
     ethr =  2.48E-07,  avg # of iterations =  1.2

     total cpu time spent up to now is       34.8 secs

     total energy              =     -57.25114424 Ry
     estimated scf accuracy    <       0.00006202 Ry

     iteration # 15     ecut=    80.00 Ry     beta= 0.30
     Davidson diagonalization with overlap
     ethr =  2.48E-07,  avg # of iterations =  1.0

     total cpu time spent up to now is       34.9 secs

     total energy              =     -57.25113119 Ry
     estimated scf accuracy    <       0.00005571 Ry

     iteration # 16     ecut=    80.00 Ry     beta= 0.30
     Davidson diagonalization with overlap
     ethr =  2.48E-07,  avg # of iterations =  1.8

     total cpu time spent up to now is       35.1 secs

     total energy              =     -57.25113341 Ry
     estimated scf accuracy    <       0.00001184 Ry

     iteration # 17     ecut=    80.00 Ry     beta= 0.30
     Davidson diagonalization with overlap
     ethr =  6.58E-08,  avg # of iterations =  2.5

     total cpu time spent up to now is       35.2 secs

     total energy              =     -57.25113337 Ry
     estimated scf accuracy    <       0.00000525 Ry

     iteration # 18     ecut=    80.00 Ry     beta= 0.30
     Davidson diagonalization with overlap
     ethr =  2.91E-08,  avg # of iterations =  4.4

     total cpu time spent up to now is       35.5 secs

     total energy              =     -57.25113510 Ry
     estimated scf accuracy    <       0.00000026 Ry

     iteration # 19     ecut=    80.00 Ry     beta= 0.30
     Davidson diagonalization with overlap
     ethr =  1.43E-09,  avg # of iterations =  5.5

     total cpu time spent up to now is       35.7 secs

     total energy              =     -57.25113547 Ry
     estimated scf accuracy    <       0.00000052 Ry

     iteration # 20     ecut=    80.00 Ry     beta= 0.30
     Davidson diagonalization with overlap
     ethr =  1.43E-09,  avg # of iterations =  2.4

     total cpu time spent up to now is       35.9 secs

     total energy              =     -57.25113543 Ry
     estimated scf accuracy    <       0.00000105 Ry

     iteration # 21     ecut=    80.00 Ry     beta= 0.30
     Davidson diagonalization with overlap
     ethr =  1.43E-09,  avg # of iterations =  1.0

     total cpu time spent up to now is       36.1 secs

     total energy              =     -57.25113609 Ry
     estimated scf accuracy    <       0.00000090 Ry

     iteration # 22     ecut=    80.00 Ry     beta= 0.30
     Davidson diagonalization with overlap
     ethr =  1.43E-09,  avg # of iterations =  6.2

     total cpu time spent up to now is       36.4 secs

     total energy              =     -57.25113642 Ry
     estimated scf accuracy    <       0.00000762 Ry

     iteration # 23     ecut=    80.00 Ry     beta= 0.30
     Davidson diagonalization with overlap
     ethr =  1.43E-09,  avg # of iterations =  1.0

     total cpu time spent up to now is       36.5 secs

     total energy              =     -57.25113603 Ry
     estimated scf accuracy    <       0.00000740 Ry

     iteration # 24     ecut=    80.00 Ry     beta= 0.30
     Davidson diagonalization with overlap
     ethr =  1.43E-09,  avg # of iterations =  2.1

     total cpu time spent up to now is       36.7 secs

     total energy              =     -57.25113606 Ry
     estimated scf accuracy    <       0.00000591 Ry

     iteration # 25     ecut=    80.00 Ry     beta= 0.30
     Davidson diagonalization with overlap
     ethr =  1.43E-09,  avg # of iterations =  1.0

     total cpu time spent up to now is       36.8 secs

     total energy              =     -57.25113551 Ry
     estimated scf accuracy    <       0.00000585 Ry

     iteration # 26     ecut=    80.00 Ry     beta= 0.30
     Davidson diagonalization with overlap
     ethr =  1.43E-09,  avg # of iterations =  4.2

     total cpu time spent up to now is       37.1 secs

     total energy              =     -57.25113554 Ry
     estimated scf accuracy    <       0.00000287 Ry

     iteration # 27     ecut=    80.00 Ry     beta= 0.30
     Davidson diagonalization with overlap
     ethr =  1.43E-09,  avg # of iterations =  1.0

     total cpu time spent up to now is       37.2 secs

     total energy              =     -57.25113534 Ry
     estimated scf accuracy    <       0.00000246 Ry

     iteration # 28     ecut=    80.00 Ry     beta= 0.30
     Davidson diagonalization with overlap
     ethr =  1.43E-09,  avg # of iterations =  3.8

     total cpu time spent up to now is       37.4 secs

     total energy              =     -57.25113538 Ry
     estimated scf accuracy    <       0.00000117 Ry

     iteration # 29     ecut=    80.00 Ry     beta= 0.30
     Davidson diagonalization with overlap
     ethr =  1.43E-09,  avg # of iterations =  1.0

     total cpu time spent up to now is       37.6 secs

     total energy              =     -57.25113537 Ry
     estimated scf accuracy    <       0.00000101 Ry

     iteration # 30     ecut=    80.00 Ry     beta= 0.30
     Davidson diagonalization with overlap
     ethr =  1.43E-09,  avg # of iterations =  1.0

     total cpu time spent up to now is       37.7 secs

     total energy              =     -57.25113541 Ry
     estimated scf accuracy    <       0.00000089 Ry

     iteration # 31     ecut=    80.00 Ry     beta= 0.30
     Davidson diagonalization with overlap
     ethr =  1.43E-09,  avg # of iterations =  1.0

     total cpu time spent up to now is       37.9 secs

     total energy              =     -57.25113536 Ry
     estimated scf accuracy    <       0.00000092 Ry

     iteration # 32     ecut=    80.00 Ry     beta= 0.30
     Davidson diagonalization with overlap
     ethr =  1.43E-09,  avg # of iterations =  1.1

     total cpu time spent up to now is       38.0 secs

     total energy              =     -57.25113531 Ry
     estimated scf accuracy    <       0.00000066 Ry

     iteration # 33     ecut=    80.00 Ry     beta= 0.30
     Davidson diagonalization with overlap
     ethr =  1.43E-09,  avg # of iterations =  1.1

     total cpu time spent up to now is       38.2 secs

     total energy              =     -57.25113535 Ry
     estimated scf accuracy    <       0.00000049 Ry

     iteration # 34     ecut=    80.00 Ry     beta= 0.30
     Davidson diagonalization with overlap
     ethr =  1.43E-09,  avg # of iterations =  1.0

     total cpu time spent up to now is       38.3 secs

     total energy              =     -57.25113522 Ry
     estimated scf accuracy    <       0.00000050 Ry

     iteration # 35     ecut=    80.00 Ry     beta= 0.30
     Davidson diagonalization with overlap
     ethr =  1.43E-09,  avg # of iterations =  3.8

     total cpu time spent up to now is       38.5 secs

     total energy              =     -57.25113529 Ry
     estimated scf accuracy    <       0.00000002 Ry

     iteration # 36     ecut=    80.00 Ry     beta= 0.30
     Davidson diagonalization with overlap
     ethr =  1.20E-10,  avg # of iterations =  6.0

     total cpu time spent up to now is       38.8 secs

     total energy              =     -57.25113530 Ry
     estimated scf accuracy    <       0.00000004 Ry

     iteration # 37     ecut=    80.00 Ry     beta= 0.30
     Davidson diagonalization with overlap
     ethr =  1.20E-10,  avg # of iterations =  2.1

     total cpu time spent up to now is       39.0 secs

     total energy              =     -57.25113530 Ry
     estimated scf accuracy    <          9.4E-09 Ry

     iteration # 38     ecut=    80.00 Ry     beta= 0.30
     Davidson diagonalization with overlap
     ethr =  5.23E-11,  avg # of iterations =  6.1

     total cpu time spent up to now is       39.3 secs

     total energy              =     -57.25113530 Ry
     estimated scf accuracy    <       0.00000006 Ry

     iteration # 39     ecut=    80.00 Ry     beta= 0.30
     Davidson diagonalization with overlap
     ethr =  5.23E-11,  avg # of iterations =  3.4

     total cpu time spent up to now is       39.5 secs

     total energy              =     -57.25113530 Ry
     estimated scf accuracy    <       0.00000002 Ry

     iteration # 40     ecut=    80.00 Ry     beta= 0.30
     Davidson diagonalization with overlap
     ethr =  5.23E-11,  avg # of iterations =  3.3

     total cpu time spent up to now is       39.7 secs

     End of self-consistent calculation

          k = 0.0000 0.0000 0.0000 ( 14489 PWs)   bands (ev):

   -15.9845 -14.6636  -7.4905  -4.4413  -4.4413  -3.5031  -3.2316  -3.2316
    -1.7948

          k = 0.0000 0.0977 0.0000 ( 14511 PWs)   bands (ev):

   -15.8803 -14.6121  -7.3715  -4.6677  -4.3252  -4.0136  -3.4020  -2.8771
    -1.8407

          k = 0.0000 0.1953 0.0000 ( 14489 PWs)   bands (ev):

   -15.5823 -14.4653  -7.0734  -5.1882  -4.6827  -4.0002  -3.8041  -2.7705
    -2.0652

          k = 0.0000 0.2930 0.0000 ( 14477 PWs)   bands (ev):

   -15.1364 -14.2480  -6.8672  -5.6235  -5.3693  -4.2558  -3.5398  -3.0186
    -2.5071

          k = 0.0000 0.3907 0.0000 ( 14465 PWs)   bands (ev):

   -14.6293 -14.0065  -7.1254  -6.0136  -5.7086  -4.6363  -3.3295  -3.0716
    -2.7726

          k = 0.0000 0.4883 0.0000 ( 14461 PWs)   bands (ev):

   -14.2013 -13.8099  -7.5142  -6.4921  -5.8218  -4.8837  -3.5282  -2.7402
    -2.5911

          k =-0.0000-0.5860 0.0000 ( 14462 PWs)   bands (ev):

   -14.0278 -13.7328  -7.6819  -6.6709  -5.9079  -4.9689  -3.5921  -2.6259
    -2.4126

          k = 0.0846 0.1465 0.0000 ( 14513 PWs)   bands (ev):

   -15.6791 -14.5128  -7.1592  -5.0341  -4.4571  -4.1129  -3.7956  -2.6704
    -1.9761

          k = 0.0846 0.2442 0.0000 ( 14513 PWs)   bands (ev):

   -15.3061 -14.3296  -6.8768  -5.4948  -5.0211  -4.3608  -3.7708  -2.6941
    -2.3217

          k = 0.0846 0.3418 0.0000 ( 14475 PWs)   bands (ev):

   -14.8257 -14.0966  -6.9162  -5.7056  -5.6531  -4.7372  -3.5007  -2.9984
    -2.6258

          k = 0.0846 0.4395 0.0000 ( 14462 PWs)   bands (ev):

   -14.3492 -13.8710  -7.2698  -6.3322  -5.6955  -4.9152  -3.3719  -3.3409
    -2.4960

          k = 0.0846 0.5372 0.0000 ( 14437 PWs)   bands (ev):

   -14.0374 -13.7277  -7.5400  -6.7006  -5.8434  -4.9781  -3.5506  -3.2167
    -2.2433

          k = 0.1692 0.2930 0.0000 ( 14491 PWs)   bands (ev):

   -14.8959 -14.1280  -6.8151  -5.6066  -5.4655  -4.9841  -3.7338  -2.7338
    -2.5592

          k = 0.1692 0.3907 0.0000 ( 14456 PWs)   bands (ev):

   -14.4359 -13.9025  -7.0136  -6.1965  -5.4960  -5.0965  -4.0267  -3.0492
    -2.4963

          k = 0.1692 0.4883 0.0000 ( 14446 PWs)   bands (ev):

   -14.0561 -13.7176  -7.2114  -6.7547  -5.6367  -5.0208  -4.1316  -3.4289
    -2.2373

          k = 0.1692 0.5860 0.0000 ( 14404 PWs)   bands (ev):

   -13.9052 -13.6447  -7.2818  -6.9587  -5.7832  -4.9536  -4.1116  -3.6081
    -2.0544

          k = 0.2537 0.4395 0.0000 ( 14433 PWs)   bands (ev):

   -14.0654 -13.7125  -7.0167  -6.7793  -5.3592  -5.0514  -4.7448  -3.3501
    -2.2623

          k = 0.2537 0.5372 0.0000 ( 14414 PWs)   bands (ev):

[...]

     crystal axes: (cart. coord. in units of alat)
               a(1) = (   0.980736  -0.000000   0.000000 )  
               a(2) = (  -0.490368   0.849342   0.000000 )  
               a(3) = (   0.000000   0.000000   6.250000 )  

     reciprocal axes: (cart. coord. in units 2 pi/alat)
               b(1) = (  1.019643  0.588691  0.000000 )  
               b(2) = (  0.000000  1.177382  0.000000 )  
               b(3) = (  0.000000  0.000000  0.160000 )  


     PseudoPot. # 1 for Mo read from file:
     /public3/home/a2s002871/MoS2/pseudo/Mo.pz-hgh.UPF
     MD5 check sum: ddacfae2313397baf1b67b06fa6affd0
     Pseudo is Norm-conserving, Zval =  6.0
     Generated in analytical, separable form
     Using radial grid of 1229 points,  6 beta functions with: 
                l(1) =   0
                l(2) =   0
                l(3) =   1
                l(4) =   1
                l(5) =   2
                l(6) =   2

     PseudoPot. # 2 for S  read from file:
     /public3/home/a2s002871/MoS2/pseudo/S.pz-hgh.UPF
     MD5 check sum: 38f9f902ee430b58f9df3cf2bf519617
     Pseudo is Norm-conserving, Zval =  6.0
     Generated in analytical, separable form
     Using radial grid of 1151 points,  3 beta functions with: 
                l(1) =   0
                l(2) =   0
                l(3) =   1

     atomic species   valence    mass     pseudopotential
        Mo             6.00    95.94000     Mo( 1.00)
        S              6.00    32.06500     S ( 1.00)

     12 Sym. Ops. (no inversion) found



   Cartesian axes

     site n.     atom                  positions (alat units)
         1           Mo  tau(   1) = (   0.0000000   0.0000000   3.1250000  )
         2           S   tau(   2) = (  -0.0000000   0.5662281   2.6367748  )
         3           S   tau(   3) = (  -0.0000000   0.5662281   3.6132252  )

     number of k points=    19
                       cart. coord. in units 2pi/alat
        k(    1) = (   0.0000000   0.0000000   0.0000000), wk =   0.0138889
        k(    2) = (   0.0000000   0.0981152   0.0000000), wk =   0.0833333
        k(    3) = (   0.0000000   0.1962303   0.0000000), wk =   0.0833333
        k(    4) = (   0.0000000   0.2943455   0.0000000), wk =   0.0833333
        k(    5) = (   0.0000000   0.3924606   0.0000000), wk =   0.0833333
        k(    6) = (   0.0000000   0.4905758   0.0000000), wk =   0.0833333
        k(    7) = (  -0.0000000  -0.5886909   0.0000000), wk =   0.0416667
        k(    8) = (   0.0849702   0.1471727   0.0000000), wk =   0.0833333
        k(    9) = (   0.0849702   0.2452879   0.0000000), wk =   0.1666667
        k(   10) = (   0.0849702   0.3434031   0.0000000), wk =   0.1666667
        k(   11) = (   0.0849702   0.4415182   0.0000000), wk =   0.1666667
        k(   12) = (   0.0849702   0.5396334   0.0000000), wk =   0.1666667
        k(   13) = (   0.1699404   0.2943455   0.0000000), wk =   0.0833333
        k(   14) = (   0.1699404   0.3924606   0.0000000), wk =   0.1666667
        k(   15) = (   0.1699404   0.4905758   0.0000000), wk =   0.1666667
        k(   16) = (   0.1699404   0.5886909   0.0000000), wk =   0.0833333
        k(   17) = (   0.2549107   0.4415182   0.0000000), wk =   0.0833333
        k(   18) = (   0.2549107   0.5396334   0.0000000), wk =   0.1666667
        k(   19) = (   0.3398809   0.5886909   0.0000000), wk =   0.0277778

     Dense  grid:   111239 G-vectors     FFT dimensions: (  36,  36, 216)

     Estimated max dynamical RAM per process >       8.43 MB

     Estimated total dynamical RAM >     404.46 MB

     Initial potential from superposition of free atoms

     starting charge   15.99930, renormalised to   18.00000

     negative rho (up, down):  2.417E-06 0.000E+00
     Starting wfcs are   27 randomized atomic wfcs

     total cpu time spent up to now is       69.0 secs

     Self-consistent Calculation

     iteration #  1     ecut=    80.00 Ry     beta= 0.30
     Davidson diagonalization with overlap
     ethr =  1.00E-06,  avg # of iterations = 15.3

     negative rho (up, down):  1.125E-07 0.000E+00

     total cpu time spent up to now is       69.7 secs

     total energy              =     -56.91985167 Ry
     estimated scf accuracy    <       1.19720447 Ry

     iteration #  2     ecut=    80.00 Ry     beta= 0.30
     Davidson diagonalization with overlap
     ethr =  6.65E-03,  avg # of iterations =  3.5

     negative rho (up, down):  8.133E-08 0.000E+00

     total cpu time spent up to now is       69.9 secs

     total energy              =     -57.24600962 Ry
     estimated scf accuracy    <       0.19311434 Ry

     iteration #  3     ecut=    80.00 Ry     beta= 0.30
     Davidson diagonalization with overlap
     ethr =  1.07E-03,  avg # of iterations =  2.2

     negative rho (up, down):  2.433E-08 0.000E+00

     total cpu time spent up to now is       70.1 secs

     total energy              =     -57.19933156 Ry
     estimated scf accuracy    <       0.08995751 Ry

     iteration #  4     ecut=    80.00 Ry     beta= 0.30
     Davidson diagonalization with overlap
     ethr =  5.00E-04,  avg # of iterations =  6.1

     negative rho (up, down):  1.454E-08 0.000E+00

     total cpu time spent up to now is       70.4 secs

     total energy              =     -57.24248491 Ry
     estimated scf accuracy    <       0.33894943 Ry

     iteration #  5     ecut=    80.00 Ry     beta= 0.30
     Davidson diagonalization with overlap
     ethr =  5.00E-04,  avg # of iterations =  2.8

     total cpu time spent up to now is       70.5 secs

     total energy              =     -57.22515102 Ry
     estimated scf accuracy    <       0.11646606 Ry

     iteration #  6     ecut=    80.00 Ry     beta= 0.30
     Davidson diagonalization with overlap
     ethr =  5.00E-04,  avg # of iterations =  3.7

     total cpu time spent up to now is       70.8 secs

     total energy              =     -57.24757726 Ry
     estimated scf accuracy    <       0.00076072 Ry

     iteration #  7     ecut=    80.00 Ry     beta= 0.30
     Davidson diagonalization with overlap
     ethr =  4.23E-06,  avg # of iterations = 13.3

     total cpu time spent up to now is       71.4 secs

     total energy              =     -57.27148340 Ry
     estimated scf accuracy    <       0.14563202 Ry

     iteration #  8     ecut=    80.00 Ry     beta= 0.30
     Davidson diagonalization with overlap
     ethr =  4.23E-06,  avg # of iterations =  1.0

     total cpu time spent up to now is       71.5 secs

     total energy              =     -57.22918862 Ry
     estimated scf accuracy    <       0.14419565 Ry

     iteration #  9     ecut=    80.00 Ry     beta= 0.30
     Davidson diagonalization with overlap
     ethr =  4.23E-06,  avg # of iterations = 10.4

     total cpu time spent up to now is       72.0 secs

     total energy              =     -57.24962612 Ry
     estimated scf accuracy    <       0.00270675 Ry

     iteration # 10     ecut=    80.00 Ry     beta= 0.30
     Davidson diagonalization with overlap
     ethr =  4.23E-06,  avg # of iterations =  8.4

     negative rho (up, down):  2.103E-08 0.000E+00

     total cpu time spent up to now is       72.4 secs

     total energy              =     -57.24938920 Ry
     estimated scf accuracy    <       0.03507515 Ry

     iteration # 11     ecut=    80.00 Ry     beta= 0.30
     Davidson diagonalization with overlap
     ethr =  4.23E-06,  avg # of iterations =  7.1

     negative rho (up, down):  1.616E-08 0.000E+00

     total cpu time spent up to now is       72.8 secs

     total energy              =     -57.25072770 Ry
     estimated scf accuracy    <       0.00359341 Ry

     iteration # 12     ecut=    80.00 Ry     beta= 0.30
     Davidson diagonalization with overlap
     ethr =  4.23E-06,  avg # of iterations =  3.8

     total cpu time spent up to now is       73.0 secs

     total energy              =     -57.25111637 Ry
     estimated scf accuracy    <       0.00015621 Ry

     iteration # 13     ecut=    80.00 Ry     beta= 0.30
     Davidson diagonalization with overlap
     ethr =  8.68E-07,  avg # of iterations =  5.8

     total cpu time spent up to now is       73.3 secs

     total energy              =     -57.25121637 Ry
     estimated scf accuracy    <       0.00016650 Ry

     iteration # 14     ecut=    80.00 Ry     beta= 0.30
     Davidson diagonalization with overlap
     ethr =  8.68E-07,  avg # of iterations =  1.4

     total cpu time spent up to now is       73.5 secs

     total energy              =     -57.25121629 Ry
     estimated scf accuracy    <       0.00006093 Ry

     iteration # 15     ecut=    80.00 Ry     beta= 0.30
     Davidson diagonalization with overlap
     ethr =  3.38E-07,  avg # of iterations =  1.6

     total cpu time spent up to now is       73.6 secs

     total energy              =     -57.25121372 Ry
     estimated scf accuracy    <       0.00003108 Ry

     iteration # 16     ecut=    80.00 Ry     beta= 0.30
     Davidson diagonalization with overlap
     ethr =  1.73E-07,  avg # of iterations =  4.3

     total cpu time spent up to now is       73.8 secs

     total energy              =     -57.25122084 Ry
     estimated scf accuracy    <       0.00000043 Ry

     iteration # 17     ecut=    80.00 Ry     beta= 0.30
     Davidson diagonalization with overlap
     ethr =  2.36E-09,  avg # of iterations = 11.3

     total cpu time spent up to now is       74.3 secs

     total energy              =     -57.25121893 Ry
     estimated scf accuracy    <       0.00002618 Ry

     iteration # 18     ecut=    80.00 Ry     beta= 0.30
     Davidson diagonalization with overlap
     ethr =  2.36E-09,  avg # of iterations =  8.5

     total cpu time spent up to now is       74.7 secs

     total energy              =     -57.25122259 Ry
     estimated scf accuracy    <       0.00000005 Ry

     iteration # 19     ecut=    80.00 Ry     beta= 0.30
     Davidson diagonalization with overlap
     ethr =  2.76E-10,  avg # of iterations =  5.3

     total cpu time spent up to now is       75.0 secs

     total energy              =     -57.25122284 Ry
     estimated scf accuracy    <       0.00000035 Ry

     iteration # 20     ecut=    80.00 Ry     beta= 0.30
     Davidson diagonalization with overlap
     ethr =  2.76E-10,  avg # of iterations =  6.7

     total cpu time spent up to now is       75.3 secs

     total energy              =     -57.25122284 Ry
     estimated scf accuracy    <       0.00000263 Ry

     iteration # 21     ecut=    80.00 Ry     beta= 0.30
     Davidson diagonalization with overlap
     ethr =  2.76E-10,  avg # of iterations =  2.2

     total cpu time spent up to now is       75.5 secs

     total energy              =     -57.25122234 Ry
     estimated scf accuracy    <       0.00000217 Ry

     iteration # 22     ecut=    80.00 Ry     beta= 0.30
     Davidson diagonalization with overlap
     ethr =  2.76E-10,  avg # of iterations =  7.5

     total cpu time spent up to now is       75.9 secs

     total energy              =     -57.25122256 Ry
     estimated scf accuracy    <       0.00000004 Ry

     iteration # 23     ecut=    80.00 Ry     beta= 0.30
     Davidson diagonalization with overlap
     ethr =  2.13E-10,  avg # of iterations =  3.6

     total cpu time spent up to now is       76.1 secs

     total energy              =     -57.25122257 Ry
     estimated scf accuracy    <          7.5E-09 Ry

     iteration # 24     ecut=    80.00 Ry     beta= 0.30
     Davidson diagonalization with overlap
     ethr =  4.18E-11,  avg # of iterations =  5.1

     total cpu time spent up to now is       76.3 secs

     total energy              =     -57.25122256 Ry
     estimated scf accuracy    <       0.00000003 Ry

     iteration # 25     ecut=    80.00 Ry     beta= 0.30
     Davidson diagonalization with overlap
     ethr =  4.18E-11,  avg # of iterations =  7.8

     total cpu time spent up to now is       76.7 secs

     total energy              =     -57.25122256 Ry
     estimated scf accuracy    <       0.00000009 Ry

     iteration # 26     ecut=    80.00 Ry     beta= 0.30
     Davidson diagonalization with overlap
     ethr =  4.18E-11,  avg # of iterations =  6.2

     total cpu time spent up to now is       77.0 secs

     total energy              =     -57.25122257 Ry
     estimated scf accuracy    <          5.0E-10 Ry

     iteration # 27     ecut=    80.00 Ry     beta= 0.30
     Davidson diagonalization with overlap
     ethr =  2.75E-12,  avg # of iterations =  5.4

     total cpu time spent up to now is       77.3 secs

     total energy              =     -57.25122257 Ry
     estimated scf accuracy    <          2.3E-09 Ry

     iteration # 28     ecut=    80.00 Ry     beta= 0.30
     Davidson diagonalization with overlap
     ethr =  2.75E-12,  avg # of iterations =  5.6

     total cpu time spent up to now is       77.6 secs

     total energy              =     -57.25122257 Ry
     estimated scf accuracy    <          5.2E-10 Ry

     iteration # 29     ecut=    80.00 Ry     beta= 0.30
     Davidson diagonalization with overlap
     ethr =  2.75E-12,  avg # of iterations =  1.1

     total cpu time spent up to now is       77.7 secs

     total energy              =     -57.25122257 Ry
     estimated scf accuracy    <          3.1E-10 Ry

     iteration # 30     ecut=    80.00 Ry     beta= 0.30
     Davidson diagonalization with overlap
     ethr =  1.73E-12,  avg # of iterations =  3.5

     total cpu time spent up to now is       77.9 secs

     End of self-consistent calculation

          k = 0.0000 0.0000 0.0000 ( 13997 PWs)   bands (ev):

   -15.9469 -14.6605  -7.4543  -4.3159  -4.3159  -3.5225  -3.1115  -3.1115
    -1.8221

          k = 0.0000 0.0981 0.0000 ( 14007 PWs)   bands (ev):

   -15.8409 -14.6068  -7.3324  -4.5478  -4.1981  -3.9794  -3.2849  -2.8173
    -1.8606

          k = 0.0000 0.1962 0.0000 ( 13961 PWs)   bands (ev):

   -15.5374 -14.4535  -7.0254  -5.0839  -4.6403  -3.8689  -3.6933  -2.7380
    -2.0647

          k = 0.0000 0.2943 0.0000 ( 13951 PWs)   bands (ev):

   -15.0822 -14.2262  -6.8052  -5.5455  -5.3314  -4.1512  -3.4051  -3.0061
    -2.4876

          k = 0.0000 0.3925 0.0000 ( 13892 PWs)   bands (ev):

   -14.5621 -13.9726  -7.0664  -5.9878  -5.6512  -4.5367  -3.3286  -2.9390
    -2.7398

          k = 0.0000 0.4906 0.0000 ( 13848 PWs)   bands (ev):

   -14.1206 -13.7654  -7.4755  -6.4791  -5.7721  -4.7871  -3.5323  -2.6160
    -2.5489

          k =-0.0000-0.5887 0.0000 ( 13882 PWs)   bands (ev):

   -13.9408 -13.6838  -7.6539  -6.6635  -5.8596  -4.8734  -3.5976  -2.5068
    -2.3692

          k = 0.0850 0.1472 0.0000 ( 13979 PWs)   bands (ev):

   -15.6361 -14.5031  -7.1142  -4.9244  -4.4170  -3.9833  -3.6886  -2.6238
    -1.9816

          k = 0.0850 0.2453 0.0000 ( 13943 PWs)   bands (ev):

   -15.2556 -14.3117  -6.8195  -5.4053  -4.9785  -4.2714  -3.6415  -2.6606
    -2.3044

          k = 0.0850 0.3434 0.0000 ( 13924 PWs)   bands (ev):

   -14.7640 -14.0675  -6.8508  -5.6664  -5.5876  -4.6617  -3.3956  -2.9780
    -2.5730

          k = 0.0850 0.4415 0.0000 ( 13897 PWs)   bands (ev):

   -14.2737 -13.8301  -7.2204  -6.3048  -5.6415  -4.8411  -3.3329  -3.2910
    -2.4158

          k = 0.0850 0.5396 0.0000 ( 13867 PWs)   bands (ev):

   -13.9510 -13.6789  -7.5088  -6.6829  -5.7930  -4.9009  -3.5515  -3.1375
    -2.1645

          k = 0.1699 0.2943 0.0000 ( 13925 PWs)   bands (ev):

   -14.8359 -14.1005  -6.7476  -5.5356  -5.4072  -4.9354  -3.6359  -2.7033
    -2.5048

          k = 0.1699 0.3925 0.0000 ( 13915 PWs)   bands (ev):

   -14.3634 -13.8637  -6.9550  -6.1456  -5.4335  -5.0589  -3.9593  -3.0280
    -2.4167

          k = 0.1699 0.4906 0.0000 ( 13884 PWs)   bands (ev):

   -13.9710 -13.6689  -7.1717  -6.7170  -5.5814  -4.9796  -4.0668  -3.4195
    -2.1562

          k = 0.1699 0.5887 0.0000 ( 13880 PWs)   bands (ev):

   -13.8143 -13.5918  -7.2526  -6.9263  -5.7291  -4.9079  -4.0470  -3.6059
    -1.9747

          k = 0.2549 0.4415 0.0000 ( 13906 PWs)   bands (ev):

   -13.9808 -13.6639  -6.9711  -6.7318  -5.2973  -5.0273  -4.6914  -3.3356
    -2.1821

          k = 0.2549 0.5396 0.0000 ( 13890 PWs)   bands (ev):

   -13.7415 -13.5356  -7.0997  -6.8446  -5.5915  -4.9464  -4.8399  -3.6786
    -1.8643

          k = 0.3399 0.5887 0.0000 ( 13920 PWs)   bands (ev):

   -13.6562 -13.4829  -7.2519  -6.4261  -5.9109  -5.2640  -4.6989  -3.8591
    -1.6701

     highest occupied level (ev):    -1.6701

!    total energy              =     -57.25122257 Ry
     estimated scf accuracy    <          1.8E-12 Ry

     The total energy is the sum of the following terms:
     one-electron contribution =    -471.69981839 Ry
     hartree contribution      =     239.97715135 Ry
     xc contribution           =     -13.16612734 Ry
     ewald contribution        =     187.63757181 Ry

     convergence has been achieved in  30 iterations

     Forces acting on atoms (cartesian axes, Ry/au):

     atom    1 type  1   force =     0.00000000   -0.00000000    0.00000000
     atom    2 type  2   force =     0.00000000    0.00000000   -0.00002922
     atom    3 type  2   force =    -0.00000000   -0.00000000    0.00002922

     Total force =     0.000041     Total SCF correction =     0.000003


     Computing stress (Cartesian axis) and pressure

          total   stress  (Ry/bohr**3)                   (kbar)     P=       -0.21
  -0.00000065  -0.00000000   0.00000000           -0.10       -0.00        0.00
  -0.00000000  -0.00000065   0.00000000           -0.00       -0.10        0.00
   0.00000000   0.00000000  -0.00000303            0.00        0.00       -0.45


     Writing output data file ./tmp/mos2.save/
 
     init_run     :      0.45s CPU      0.56s WALL (       2 calls)
     electrons    :     72.88s CPU     76.03s WALL (      10 calls)
     update_pot   :      0.34s CPU      0.35s WALL (       8 calls)
     forces       :      0.23s CPU      0.24s WALL (      10 calls)
     stress       :      0.46s CPU      0.48s WALL (      10 calls)

     Called by init_run:
     wfcinit      :      0.33s CPU      0.39s WALL (       2 calls)
     potinit      :      0.03s CPU      0.04s WALL (       2 calls)
     hinit0       :      0.04s CPU      0.07s WALL (       2 calls)

     Called by electrons:
     c_bands      :     63.92s CPU     66.66s WALL (     310 calls)
     sum_band     :      8.27s CPU      8.43s WALL (     310 calls)
     v_of_rho     :      0.20s CPU      0.21s WALL (     319 calls)
     mix_rho      :      0.37s CPU      0.38s WALL (     310 calls)

     Called by c_bands:
     init_us_2    :      0.69s CPU      0.73s WALL (   12198 calls)
     cegterg      :     61.99s CPU     63.30s WALL (    5890 calls)

     Called by *egterg:
     cdiaghg      :      2.61s CPU      2.70s WALL (   30218 calls)
     h_psi        :     54.53s CPU     55.71s WALL (   30427 calls)
     g_psi        :      0.07s CPU      0.08s WALL (   24499 calls)

     Called by h_psi:
     h_psi:calbec :      2.49s CPU      2.54s WALL (   30427 calls)
     vloc_psi     :     51.11s CPU     52.23s WALL (   30427 calls)
     add_vuspsi   :      0.77s CPU      0.79s WALL (   30427 calls)

     General routines
     calbec       :      2.54s CPU      2.60s WALL (   31377 calls)
     fft          :      0.30s CPU      0.33s WALL (    1006 calls)
     ffts         :      0.09s CPU      0.09s WALL (     310 calls)
     fftw         :     56.91s CPU     58.14s WALL (  430414 calls)
 
     Parallel routines
     fft_scatt_xy :      3.53s CPU      3.59s WALL (  431730 calls)
     fft_scatt_yz :     34.31s CPU     35.07s WALL (  431730 calls)
 
     PWSCF        :   1m14.52s CPU   1m18.18s WALL

 
   This run was terminated on:  23: 1:51  12Jun2026            

=------------------------------------------------------------------------------=
   JOB DONE.
=------------------------------------------------------------------------------=
