
     Program PWSCF v.6.7MaX starts on 11Jun2026 at  2: 6:21 

     This program is part of the open-source Quantum ESPRESSO suite
     for quantum simulation of materials; please cite
         "P. Giannozzi et al., J. Phys.:Condens. Matter 21 395502 (2009);
         "P. Giannozzi et al., J. Phys.:Condens. Matter 29 465901 (2017);
          URL http://www.quantum-espresso.org", 
     in publications or presentations arising from this work. More details at
     http://www.quantum-espresso.org/quote

     Parallel version (MPI), running on    64 processors

     MPI processes distributed on     1 nodes
     R & G space division:  proc/nbgrp/npool/nimage =      64
     Waiting for input...
     Reading input from standard input
Warning: card K_POINTS(AUTOMATIC) ignored
Warning: card 12 12 1 0 0 0 ignored

     Current dimensions of program PWSCF are:
     Max number of different atomic species (ntypx) = 10
     Max number of k-points (npk) =  40000
     Max angular momentum in pseudopotentials (lmaxx) =  3
     file Mo.pbe-spn-rrkjus_psl.1.0.0.UPF: wavefunction(s)  4S renormalized

     gamma-point specific algorithms are used

     Subspace diagonalization in iterative solution of the eigenvalue problem:
     a serial algorithm will be used

 
     Parallelization info
     --------------------
     sticks:   dense  smooth     PW     G-vecs:    dense   smooth      PW
     Min           8       8      2                  832      832      78
     Max          10      10      4                  914      914     138
     Sum         595     595    151                55957    55957    7011
 


     bravais-lattice index     =            4
     lattice parameter (alat)  =       6.0282  a.u.
     unit-cell volume          =     892.0719 (a.u.)^3
     number of atoms/cell      =            3
     number of atomic types    =            2
     number of electrons       =        26.00
     number of Kohn-Sham states=           17
     kinetic-energy cutoff     =      60.0000  Ry
     charge density cutoff     =     240.0000  Ry
     scf convergence threshold =      1.0E-06
     mixing beta               =       0.7000
     number of iterations used =            8  plain     mixing
     Exchange-correlation= PBE
                           (   1   4   3   4   0   0   0)

     celldm(1)=   6.028226  celldm(2)=   0.000000  celldm(3)=   4.702194
     celldm(4)=   0.000000  celldm(5)=   0.000000  celldm(6)=   0.000000

     crystal axes: (cart. coord. in units of alat)
               a(1) = (   1.000000   0.000000   0.000000 )  
               a(2) = (  -0.500000   0.866025   0.000000 )  
               a(3) = (   0.000000   0.000000   4.702194 )  

     reciprocal axes: (cart. coord. in units 2 pi/alat)
               b(1) = (  1.000000  0.577350  0.000000 )  
               b(2) = (  0.000000  1.154701  0.000000 )  
               b(3) = (  0.000000  0.000000  0.212667 )  


     PseudoPot. # 1 for Mo read from file:
     /public3/home/a2s002871/MoS2/pseudo/Mo.pbe-spn-rrkjus_psl.1.0.0.UPF
     MD5 check sum: 03f09b12e49601d1a456a78ce8b2d514
     Pseudo is Ultrasoft + core correction, Zval = 14.0
     Generated using &quot;atomic&quot; code by A. Dal Corso  v.6.3
     Using radial grid of 1229 points,  6 beta functions with: 
                l(1) =   0
                l(2) =   0
                l(3) =   1
                l(4) =   1
                l(5) =   2
                l(6) =   2
     Q(r) pseudized with 0 coefficients 


     PseudoPot. # 2 for S  read from file:
     /public3/home/a2s002871/MoS2/pseudo/S.pbe-n-rrkjus_psl.1.0.0.UPF
     MD5 check sum: 9d0fe39aa2a799ea84730884c9b010f4
     Pseudo is Ultrasoft + core correction, Zval =  6.0
     Generated using &quot;atomic&quot; code by A. Dal Corso  v.6.3
     Using radial grid of 1151 points,  6 beta functions with: 
                l(1) =   0
                l(2) =   0
                l(3) =   1
                l(4) =   1
                l(5) =   2
                l(6) =   2
     Q(r) pseudized with 0 coefficients 


     atomic species   valence    mass     pseudopotential
        Mo            14.00    95.95000     Mo( 1.00)
        S              6.00    32.06000     S ( 1.00)

     12 Sym. Ops. (no inversion) found



   Cartesian axes

     site n.     atom                  positions (alat units)
         1           Mo  tau(   1) = (  -0.0000000   0.5773503   2.3510972  )
         2           S   tau(   2) = (   0.5000000   0.2886751   2.5721003  )
         3           S   tau(   3) = (   0.5000000   0.2886751   2.1300940  )

     number of k points=     1  Marzari-Vanderbilt smearing, width (Ry)=  0.0200
                       cart. coord. in units 2pi/alat
        k(    1) = (   0.0000000   0.0000000   0.0000000), wk =   2.0000000

     Dense  grid:    27979 G-vectors     FFT dimensions: (  30,  30, 144)

     Estimated max dynamical RAM per process >       4.23 MB

     Estimated total dynamical RAM >     270.96 MB

     Initial potential from superposition of free atoms

     starting charge   25.99905, renormalised to   26.00000

     negative rho (up, down):  1.645E-03 0.000E+00
     Starting wfcs are   18 randomized atomic wfcs

     total cpu time spent up to now is        2.2 secs

     Self-consistent Calculation

     iteration #  1     ecut=    60.00 Ry     beta= 0.70
     Davidson diagonalization with overlap
     ethr =  1.00E-02,  avg # of iterations =  3.0

     negative rho (up, down):  1.899E-03 0.000E+00

     total cpu time spent up to now is        2.3 secs

     total energy              =    -179.01152154 Ry
     estimated scf accuracy    <       0.96554146 Ry

     iteration #  2     ecut=    60.00 Ry     beta= 0.70
     Davidson diagonalization with overlap
     ethr =  3.71E-03,  avg # of iterations = 11.0

     total cpu time spent up to now is        2.4 secs

     total energy              =    -177.62863108 Ry
     estimated scf accuracy    <      16.63707867 Ry

     iteration #  3     ecut=    60.00 Ry     beta= 0.70
     Davidson diagonalization with overlap
     ethr =  3.71E-03,  avg # of iterations =  6.0

     total cpu time spent up to now is        2.4 secs

     total energy              =    -179.37213321 Ry
     estimated scf accuracy    <       0.25089785 Ry

     iteration #  4     ecut=    60.00 Ry     beta= 0.70
     Davidson diagonalization with overlap
     ethr =  9.65E-04,  avg # of iterations =  4.0

     total cpu time spent up to now is        2.4 secs

     total energy              =    -179.40775540 Ry
     estimated scf accuracy    <       0.24248172 Ry

     iteration #  5     ecut=    60.00 Ry     beta= 0.70
     Davidson diagonalization with overlap
     ethr =  9.33E-04,  avg # of iterations =  1.0

     total cpu time spent up to now is        2.4 secs

     total energy              =    -179.39885169 Ry
     estimated scf accuracy    <       0.12714738 Ry

     iteration #  6     ecut=    60.00 Ry     beta= 0.70
     Davidson diagonalization with overlap
     ethr =  4.89E-04,  avg # of iterations =  1.0

     total cpu time spent up to now is        2.5 secs

     total energy              =    -179.39969767 Ry
     estimated scf accuracy    <       0.05817825 Ry

     iteration #  7     ecut=    60.00 Ry     beta= 0.70
     Davidson diagonalization with overlap
     ethr =  2.24E-04,  avg # of iterations =  1.0

     total cpu time spent up to now is        2.5 secs

     total energy              =    -179.40088402 Ry
     estimated scf accuracy    <       0.04660631 Ry

     iteration #  8     ecut=    60.00 Ry     beta= 0.70
     Davidson diagonalization with overlap
     ethr =  1.79E-04,  avg # of iterations =  1.0

     total cpu time spent up to now is        2.5 secs

     total energy              =    -179.39727175 Ry
     estimated scf accuracy    <       0.04580138 Ry

     iteration #  9     ecut=    60.00 Ry     beta= 0.70
     Davidson diagonalization with overlap
     ethr =  1.76E-04,  avg # of iterations =  1.0

     total cpu time spent up to now is        2.5 secs

     total energy              =    -179.39524242 Ry
     estimated scf accuracy    <       0.02926265 Ry

     iteration # 10     ecut=    60.00 Ry     beta= 0.70
     Davidson diagonalization with overlap
     ethr =  1.13E-04,  avg # of iterations =  1.0

     total cpu time spent up to now is        2.5 secs

     total energy              =    -179.39655192 Ry
     estimated scf accuracy    <       0.01983685 Ry

     iteration # 11     ecut=    60.00 Ry     beta= 0.70
     Davidson diagonalization with overlap
     ethr =  7.63E-05,  avg # of iterations =  1.0

     negative rho (up, down):  8.207E-04 0.000E+00

     total cpu time spent up to now is        2.5 secs

     total energy              =    -179.38728216 Ry
     estimated scf accuracy    <       0.02696720 Ry

     iteration # 12     ecut=    60.00 Ry     beta= 0.70
     Davidson diagonalization with overlap
     ethr =  7.63E-05,  avg # of iterations =  5.0

     negative rho (up, down):  6.771E-04 0.000E+00

     total cpu time spent up to now is        2.5 secs

     total energy              =    -179.39283136 Ry
     estimated scf accuracy    <       0.13270666 Ry

     iteration # 13     ecut=    60.00 Ry     beta= 0.70
     Davidson diagonalization with overlap
     ethr =  7.63E-05,  avg # of iterations =  1.0

     negative rho (up, down):  6.565E-04 0.000E+00

     total cpu time spent up to now is        2.6 secs

     total energy              =    -179.39072624 Ry
     estimated scf accuracy    <       0.09179540 Ry

     iteration # 14     ecut=    60.00 Ry     beta= 0.70
     Davidson diagonalization with overlap
     ethr =  7.63E-05,  avg # of iterations =  1.0

     negative rho (up, down):  5.909E-04 0.000E+00

     total cpu time spent up to now is        2.6 secs

     total energy              =    -179.38718911 Ry
     estimated scf accuracy    <       0.04275846 Ry

     iteration # 15     ecut=    60.00 Ry     beta= 0.70
     Davidson diagonalization with overlap
     ethr =  7.63E-05,  avg # of iterations =  2.0

     negative rho (up, down):  6.974E-04 0.000E+00

     total cpu time spent up to now is        2.6 secs

     total energy              =    -179.38936743 Ry
     estimated scf accuracy    <       0.00069373 Ry

     iteration # 16     ecut=    60.00 Ry     beta= 0.70
     Davidson diagonalization with overlap
     ethr =  2.67E-06,  avg # of iterations =  5.0

     negative rho (up, down):  7.512E-04 0.000E+00

     total cpu time spent up to now is        2.6 secs

     total energy              =    -179.38938889 Ry
     estimated scf accuracy    <       0.00008333 Ry

     iteration # 17     ecut=    60.00 Ry     beta= 0.70
     Davidson diagonalization with overlap
     ethr =  3.20E-07,  avg # of iterations =  3.0

     negative rho (up, down):  7.503E-04 0.000E+00

     total cpu time spent up to now is        2.6 secs

     total energy              =    -179.38939749 Ry
     estimated scf accuracy    <       0.00003835 Ry

     iteration # 18     ecut=    60.00 Ry     beta= 0.70
     Davidson diagonalization with overlap
     ethr =  1.47E-07,  avg # of iterations =  1.0

     negative rho (up, down):  7.438E-04 0.000E+00

     total cpu time spent up to now is        2.6 secs

     total energy              =    -179.38939912 Ry
     estimated scf accuracy    <       0.00000419 Ry

     iteration # 19     ecut=    60.00 Ry     beta= 0.70
     Davidson diagonalization with overlap
     ethr =  1.61E-08,  avg # of iterations =  2.0

     negative rho (up, down):  7.382E-04 0.000E+00

     total cpu time spent up to now is        2.6 secs

     total energy              =    -179.38939939 Ry
     estimated scf accuracy    <       0.00000133 Ry

     iteration # 20     ecut=    60.00 Ry     beta= 0.70
     Davidson diagonalization with overlap
     ethr =  5.12E-09,  avg # of iterations =  2.0

     negative rho (up, down):  7.294E-04 0.000E+00

     total cpu time spent up to now is        2.7 secs

     End of self-consistent calculation

          k = 0.0000 0.0000 0.0000 (  3506 PWs)   bands (ev):

   -61.0461 -36.2454 -36.2453 -34.7071 -23.2053 -11.7918 -11.6823 -11.6823
    -9.1609  -4.4365  -4.4364   1.0289   3.0947   3.0947   3.1196   3.9184
     4.9692

     the Fermi energy is     3.0749 ev

!    total energy              =    -179.38939924 Ry
     estimated scf accuracy    <       0.00000038 Ry
     smearing contrib. (-TS)   =      -0.02005597 Ry
     internal energy E=F+TS    =    -179.36934327 Ry

     The total energy is F=E-TS. E is the sum of the following terms:
     one-electron contribution =    -911.25027418 Ry
     hartree contribution      =     455.84438661 Ry
     xc contribution           =     -31.62048040 Ry
     ewald contribution        =     307.65702471 Ry

     convergence has been achieved in  20 iterations

     Writing output data file ./tmp/MoS2.save/
 
     init_run     :      0.05s CPU      0.74s WALL (       1 calls)
     electrons    :      0.33s CPU      0.42s WALL (       1 calls)

     Called by init_run:
     wfcinit      :      0.01s CPU      0.13s WALL (       1 calls)
     potinit      :      0.00s CPU      0.06s WALL (       1 calls)
     hinit0       :      0.03s CPU      0.51s WALL (       1 calls)

     Called by electrons:
     c_bands      :      0.18s CPU      0.20s WALL (      20 calls)
     sum_band     :      0.06s CPU      0.08s WALL (      20 calls)
     v_of_rho     :      0.03s CPU      0.09s WALL (      21 calls)
     newd         :      0.03s CPU      0.05s WALL (      21 calls)
     mix_rho      :      0.01s CPU      0.02s WALL (      20 calls)

     Called by c_bands:
     init_us_2    :      0.00s CPU      0.00s WALL (      41 calls)
     regterg      :      0.18s CPU      0.19s WALL (      20 calls)

     Called by *egterg:
     rdiaghg      :      0.02s CPU      0.13s WALL (      73 calls)
     h_psi        :      0.15s CPU      0.17s WALL (      74 calls)
     s_psi        :      0.00s CPU      0.00s WALL (      74 calls)
     g_psi        :      0.00s CPU      0.00s WALL (      53 calls)

     Called by h_psi:
     h_psi:calbec :      0.03s CPU      0.04s WALL (      74 calls)
     vloc_psi     :      0.12s CPU      0.13s WALL (      74 calls)
     add_vuspsi   :      0.00s CPU      0.00s WALL (      74 calls)

     General routines
     calbec       :      0.03s CPU      0.03s WALL (      94 calls)
     fft          :      0.03s CPU      0.31s WALL (     189 calls)
     ffts         :      0.00s CPU      0.01s WALL (      20 calls)
     fftw         :      0.13s CPU      0.15s WALL (    1064 calls)
 
     Parallel routines
     fft_scatt_xy :      0.00s CPU      0.01s WALL (    1273 calls)
     fft_scatt_yz :      0.13s CPU      0.15s WALL (    1273 calls)
 
     PWSCF        :      0.58s CPU      2.81s WALL

 
   This run was terminated on:   2: 6:24  11Jun2026            

=------------------------------------------------------------------------------=
   JOB DONE.
=------------------------------------------------------------------------------=
