
     Program PWSCF v.6.7MaX starts on 12Jun2026 at 23: 3:31 

     This program is part of the open-source Quantum ESPRESSO suite
     for quantum simulation of materials; please cite
         "P. Giannozzi et al., J. Phys.:Condens. Matter 21 395502 (2009);
         "P. Giannozzi et al., J. Phys.:Condens. Matter 29 465901 (2017);
          URL http://www.quantum-espresso.org", 
     in publications or presentations arising from this work. More details at
     http://www.quantum-espresso.org/quote

     Parallel version (MPI), running on    32 processors

     MPI processes distributed on     1 nodes
     R & G space division:  proc/nbgrp/npool/nimage =      32
     Waiting for input...
     Reading input from standard input

     Current dimensions of program PWSCF are:
     Max number of different atomic species (ntypx) = 10
     Max number of k-points (npk) =  40000
     Max angular momentum in pseudopotentials (lmaxx) =  3

     Subspace diagonalization in iterative solution of the eigenvalue problem:
     a serial algorithm will be used

 
     Parallelization info
     --------------------
     sticks:   dense  smooth     PW     G-vecs:    dense   smooth      PW
     Min          25      25      7                 3605     3605     559
     Max          26      26      8                 3632     3632     571
     Sum         805     805    241               115655   115655   18103
 


     bravais-lattice index     =            4
     lattice parameter (alat)  =       6.0471  a.u.
     unit-cell volume          =    1196.8981 (a.u.)^3
     number of atoms/cell      =            3
     number of atomic types    =            2
     number of electrons       =        18.00
     number of Kohn-Sham states=            9
     kinetic-energy cutoff     =      80.0000  Ry
     charge density cutoff     =     320.0000  Ry
     scf convergence threshold =      1.0E-08
     mixing beta               =       0.3000
     number of iterations used =            8  plain     mixing
     energy convergence thresh.=      1.0E-05
     force convergence thresh. =      1.0E-04
     press convergence thresh. =      5.0E-01
     Exchange-correlation= SLA-PZ-NOGX-NOGC
                           (   1   1   0   0   0   0   0)
     nstep                     =           50


     celldm(1)=   6.047124  celldm(2)=   0.000000  celldm(3)=   6.250000
     celldm(4)=   0.000000  celldm(5)=   0.000000  celldm(6)=   0.000000

     crystal axes: (cart. coord. in units of alat)
               a(1) = (   1.000000   0.000000   0.000000 )  
               a(2) = (  -0.500000   0.866025   0.000000 )  
               a(3) = (   0.000000   0.000000   6.250000 )  

     reciprocal axes: (cart. coord. in units 2 pi/alat)
               b(1) = (  1.000000  0.577350  0.000000 )  
               b(2) = (  0.000000  1.154701  0.000000 )  
               b(3) = (  0.000000  0.000000  0.160000 )  


     PseudoPot. # 1 for Mo read from file:
     /public3/home/a2s002871/MoS2/pseudo/Mo.pz-hgh.UPF
     MD5 check sum: ddacfae2313397baf1b67b06fa6affd0
     Pseudo is Norm-conserving, Zval =  6.0
     Generated in analytical, separable form
     Using radial grid of 1229 points,  6 beta functions with: 
                l(1) =   0
                l(2) =   0
                l(3) =   1
                l(4) =   1
                l(5) =   2
                l(6) =   2

     PseudoPot. # 2 for S  read from file:
     /public3/home/a2s002871/MoS2/pseudo/S.pz-hgh.UPF
     MD5 check sum: 38f9f902ee430b58f9df3cf2bf519617
     Pseudo is Norm-conserving, Zval =  6.0
     Generated in analytical, separable form
     Using radial grid of 1151 points,  3 beta functions with: 
                l(1) =   0
                l(2) =   0
                l(3) =   1

     atomic species   valence    mass     pseudopotential
        Mo             6.00    95.94000     Mo( 1.00)
        S              6.00    32.06500     S ( 1.00)

     12 Sym. Ops. (no inversion) found



   Cartesian axes

     site n.     atom                  positions (alat units)
         1           Mo  tau(   1) = (   0.0000000   0.0000000   3.1250000  )
         2           S   tau(   2) = (  -0.0000000   0.5773503   2.6250000  )
         3           S   tau(   3) = (  -0.0000000   0.5773503   3.6250000  )

     number of k points=    19
                       cart. coord. in units 2pi/alat
        k(    1) = (   0.0000000   0.0000000   0.0000000), wk =   0.0138889
        k(    2) = (   0.0000000   0.0962250   0.0000000), wk =   0.0833333
        k(    3) = (   0.0000000   0.1924501   0.0000000), wk =   0.0833333
        k(    4) = (   0.0000000   0.2886751   0.0000000), wk =   0.0833333
        k(    5) = (   0.0000000   0.3849002   0.0000000), wk =   0.0833333
        k(    6) = (   0.0000000   0.4811252   0.0000000), wk =   0.0833333
        k(    7) = (   0.0000000  -0.5773503   0.0000000), wk =   0.0416667
        k(    8) = (   0.0833333   0.1443376   0.0000000), wk =   0.0833333
        k(    9) = (   0.0833333   0.2405626   0.0000000), wk =   0.1666667
        k(   10) = (   0.0833333   0.3367877   0.0000000), wk =   0.1666667
        k(   11) = (   0.0833333   0.4330127   0.0000000), wk =   0.1666667
        k(   12) = (   0.0833333   0.5292377   0.0000000), wk =   0.1666667
        k(   13) = (   0.1666667   0.2886751   0.0000000), wk =   0.0833333
        k(   14) = (   0.1666667   0.3849002   0.0000000), wk =   0.1666667
        k(   15) = (   0.1666667   0.4811252   0.0000000), wk =   0.1666667
        k(   16) = (   0.1666667   0.5773503   0.0000000), wk =   0.0833333
        k(   17) = (   0.2500000   0.4330127   0.0000000), wk =   0.0833333
        k(   18) = (   0.2500000   0.5292377   0.0000000), wk =   0.1666667
        k(   19) = (   0.3333333   0.5773503   0.0000000), wk =   0.0277778

     Dense  grid:   115655 G-vectors     FFT dimensions: (  36,  36, 216)

     Estimated max dynamical RAM per process >       9.80 MB

     Estimated total dynamical RAM >     313.52 MB

     Initial potential from superposition of free atoms

     starting charge   15.99930, renormalised to   18.00000

     negative rho (up, down):  2.646E-06 0.000E+00
     Starting wfcs are   27 randomized atomic wfcs

     total cpu time spent up to now is        0.6 secs

     Self-consistent Calculation

     iteration #  1     ecut=    80.00 Ry     beta= 0.30
     Davidson diagonalization with overlap
     ethr =  1.00E-02,  avg # of iterations =  2.0

     total cpu time spent up to now is        0.8 secs

     total energy              =     -56.81545244 Ry
     estimated scf accuracy    <       1.45666025 Ry

     iteration #  2     ecut=    80.00 Ry     beta= 0.30
     Davidson diagonalization with overlap
     ethr =  8.09E-03,  avg # of iterations =  3.8

     total cpu time spent up to now is        1.0 secs

     total energy              =     -57.23395769 Ry
     estimated scf accuracy    <       0.24236419 Ry

     iteration #  3     ecut=    80.00 Ry     beta= 0.30
     Davidson diagonalization with overlap
     ethr =  1.35E-03,  avg # of iterations =  2.5

     total cpu time spent up to now is        1.2 secs

     total energy              =     -57.18011032 Ry
     estimated scf accuracy    <       0.14167706 Ry

     iteration #  4     ecut=    80.00 Ry     beta= 0.30
     Davidson diagonalization with overlap
     ethr =  7.87E-04,  avg # of iterations =  4.6

     total cpu time spent up to now is        1.5 secs

     total energy              =     -57.25211089 Ry
     estimated scf accuracy    <       0.17886043 Ry

     iteration #  5     ecut=    80.00 Ry     beta= 0.30
     Davidson diagonalization with overlap
     ethr =  7.87E-04,  avg # of iterations =  1.0

     total cpu time spent up to now is        1.6 secs

     total energy              =     -57.22133461 Ry
     estimated scf accuracy    <       0.11690440 Ry

     iteration #  6     ecut=    80.00 Ry     beta= 0.30
     Davidson diagonalization with overlap
     ethr =  6.49E-04,  avg # of iterations =  3.2

     total cpu time spent up to now is        1.8 secs

     total energy              =     -57.24064352 Ry
     estimated scf accuracy    <       0.00211779 Ry

     iteration #  7     ecut=    80.00 Ry     beta= 0.30
     Davidson diagonalization with overlap
     ethr =  1.18E-05,  avg # of iterations =  8.2

     total cpu time spent up to now is        2.2 secs

     total energy              =     -57.24779412 Ry
     estimated scf accuracy    <       0.00277739 Ry

     iteration #  8     ecut=    80.00 Ry     beta= 0.30
     Davidson diagonalization with overlap
     ethr =  1.18E-05,  avg # of iterations =  6.7

     total cpu time spent up to now is        2.5 secs

     total energy              =     -57.23589888 Ry
     estimated scf accuracy    <       0.05317147 Ry

     iteration #  9     ecut=    80.00 Ry     beta= 0.30
     Davidson diagonalization with overlap
     ethr =  1.18E-05,  avg # of iterations =  7.9

     total cpu time spent up to now is        2.9 secs

     total energy              =     -57.24449982 Ry
     estimated scf accuracy    <       0.00128448 Ry

     iteration # 10     ecut=    80.00 Ry     beta= 0.30
     Davidson diagonalization with overlap
     ethr =  7.14E-06,  avg # of iterations =  1.1

     negative rho (up, down):  3.140E-07 0.000E+00

     total cpu time spent up to now is        3.1 secs

     total energy              =     -57.24517469 Ry
     estimated scf accuracy    <       0.00128433 Ry

     iteration # 11     ecut=    80.00 Ry     beta= 0.30
     Davidson diagonalization with overlap
     ethr =  7.14E-06,  avg # of iterations =  4.5

     negative rho (up, down):  4.384E-07 0.000E+00

     total cpu time spent up to now is        3.3 secs

     total energy              =     -57.24478289 Ry
     estimated scf accuracy    <       0.00803466 Ry

     iteration # 12     ecut=    80.00 Ry     beta= 0.30
     Davidson diagonalization with overlap
     ethr =  7.14E-06,  avg # of iterations =  1.5

     negative rho (up, down):  3.509E-07 0.000E+00

     total cpu time spent up to now is        3.4 secs

     total energy              =     -57.24439795 Ry
     estimated scf accuracy    <       0.00562233 Ry

     iteration # 13     ecut=    80.00 Ry     beta= 0.30
     Davidson diagonalization with overlap
     ethr =  7.14E-06,  avg # of iterations =  1.8

     negative rho (up, down):  4.721E-07 0.000E+00

     total cpu time spent up to now is        3.6 secs

     total energy              =     -57.24455717 Ry
     estimated scf accuracy    <       0.00345711 Ry

     iteration # 14     ecut=    80.00 Ry     beta= 0.30
     Davidson diagonalization with overlap
     ethr =  7.14E-06,  avg # of iterations =  1.0

     total cpu time spent up to now is        3.8 secs

     total energy              =     -57.24381515 Ry
     estimated scf accuracy    <       0.00339316 Ry

     iteration # 15     ecut=    80.00 Ry     beta= 0.30
     Davidson diagonalization with overlap
     ethr =  7.14E-06,  avg # of iterations =  4.1

     total cpu time spent up to now is        4.0 secs

     total energy              =     -57.24418176 Ry
     estimated scf accuracy    <       0.00014647 Ry

     iteration # 16     ecut=    80.00 Ry     beta= 0.30
     Davidson diagonalization with overlap
     ethr =  8.14E-07,  avg # of iterations =  6.1

     total cpu time spent up to now is        4.3 secs

     total energy              =     -57.24428317 Ry
     estimated scf accuracy    <       0.00013263 Ry

     iteration # 17     ecut=    80.00 Ry     beta= 0.30
     Davidson diagonalization with overlap
     ethr =  7.37E-07,  avg # of iterations =  1.0

     total cpu time spent up to now is        4.5 secs

     total energy              =     -57.24426706 Ry
     estimated scf accuracy    <       0.00007835 Ry

     iteration # 18     ecut=    80.00 Ry     beta= 0.30
     Davidson diagonalization with overlap
     ethr =  4.35E-07,  avg # of iterations =  2.7

     total cpu time spent up to now is        4.6 secs

     total energy              =     -57.24427150 Ry
     estimated scf accuracy    <       0.00000926 Ry

     iteration # 19     ecut=    80.00 Ry     beta= 0.30
     Davidson diagonalization with overlap
     ethr =  5.14E-08,  avg # of iterations =  6.4

     total cpu time spent up to now is        4.9 secs

     total energy              =     -57.24428120 Ry
     estimated scf accuracy    <       0.00002676 Ry

     iteration # 20     ecut=    80.00 Ry     beta= 0.30
     Davidson diagonalization with overlap
     ethr =  5.14E-08,  avg # of iterations =  1.0

     total cpu time spent up to now is        5.1 secs

     total energy              =     -57.24427709 Ry
     estimated scf accuracy    <       0.00002007 Ry

     iteration # 21     ecut=    80.00 Ry     beta= 0.30
     Davidson diagonalization with overlap
     ethr =  5.14E-08,  avg # of iterations =  3.3

     total cpu time spent up to now is        5.3 secs

     total energy              =     -57.24427868 Ry
     estimated scf accuracy    <       0.00000211 Ry

     iteration # 22     ecut=    80.00 Ry     beta= 0.30
     Davidson diagonalization with overlap
     ethr =  1.17E-08,  avg # of iterations =  3.8

     total cpu time spent up to now is        5.5 secs

     total energy              =     -57.24427915 Ry
     estimated scf accuracy    <       0.00000027 Ry

     iteration # 23     ecut=    80.00 Ry     beta= 0.30
     Davidson diagonalization with overlap
     ethr =  1.49E-09,  avg # of iterations =  4.8

     total cpu time spent up to now is        5.7 secs

     total energy              =     -57.24427927 Ry
     estimated scf accuracy    <       0.00000002 Ry

     iteration # 24     ecut=    80.00 Ry     beta= 0.30
     Davidson diagonalization with overlap
     ethr =  8.38E-11,  avg # of iterations = 12.5

     total cpu time spent up to now is        6.4 secs

     total energy              =     -57.24427903 Ry
     estimated scf accuracy    <       0.00000377 Ry

     iteration # 25     ecut=    80.00 Ry     beta= 0.30
     Davidson diagonalization with overlap
     ethr =  8.38E-11,  avg # of iterations =  9.7

     total cpu time spent up to now is        6.9 secs

     total energy              =     -57.24427919 Ry
     estimated scf accuracy    <       0.00000024 Ry

     iteration # 26     ecut=    80.00 Ry     beta= 0.30
     Davidson diagonalization with overlap
     ethr =  8.38E-11,  avg # of iterations =  7.9

     total cpu time spent up to now is        7.2 secs

     total energy              =     -57.24427930 Ry
     estimated scf accuracy    <       0.00000012 Ry

     iteration # 27     ecut=    80.00 Ry     beta= 0.30
     Davidson diagonalization with overlap
     ethr =  8.38E-11,  avg # of iterations =  4.2

     total cpu time spent up to now is        7.5 secs

     total energy              =     -57.24427922 Ry
     estimated scf accuracy    <       0.00000028 Ry

     iteration # 28     ecut=    80.00 Ry     beta= 0.30
     Davidson diagonalization with overlap
     ethr =  8.38E-11,  avg # of iterations =  6.8

     total cpu time spent up to now is        7.8 secs

     End of self-consistent calculation

          k = 0.0000 0.0000 0.0000 ( 14489 PWs)   bands (ev):

   -15.7518 -14.6176  -7.3061  -4.2703  -4.2703  -3.6243  -3.1749  -3.1749
    -1.9723

          k = 0.0000 0.0962 0.0000 ( 14511 PWs)   bands (ev):

   -15.6549 -14.5658  -7.1892  -4.4972  -4.1643  -4.0140  -3.3356  -2.9447
    -2.0136

          k = 0.0000 0.1925 0.0000 ( 14489 PWs)   bands (ev):

   -15.3778 -14.4184  -6.8884  -5.0356  -4.6177  -3.8693  -3.7155  -2.9055
    -2.2137

          k = 0.0000 0.2887 0.0000 ( 14477 PWs)   bands (ev):

   -14.9632 -14.2001  -6.6411  -5.5445  -5.2696  -4.1431  -3.4569  -3.1749
    -2.5983

          k = 0.0000 0.3849 0.0000 ( 14465 PWs)   bands (ev):

   -14.4920 -13.9574  -6.8866  -5.9028  -5.6643  -4.5042  -3.4780  -3.0475
    -2.8177

          k = 0.0000 0.4811 0.0000 ( 14461 PWs)   bands (ev):

   -14.0954 -13.7598  -7.3062  -6.3807  -5.7273  -4.7391  -3.6646  -2.7674
    -2.6501

          k = 0.0000-0.5774 0.0000 ( 14462 PWs)   bands (ev):

   -13.9351 -13.6823  -7.4872  -6.5602  -5.7838  -4.8202  -3.7238  -2.6734
    -2.4912

          k = 0.0833 0.1443 0.0000 ( 14513 PWs)   bands (ev):

   -15.4678 -14.4661  -6.9773  -4.8719  -4.4115  -3.9729  -3.7146  -2.7878
    -2.1346

          k = 0.0833 0.2406 0.0000 ( 14513 PWs)   bands (ev):

   -15.1210 -14.2822  -6.6729  -5.3796  -4.9345  -4.2636  -3.6725  -2.8444
    -2.4348

          k = 0.0833 0.3368 0.0000 ( 14475 PWs)   bands (ev):

   -14.6746 -14.0486  -6.6699  -5.6166  -5.5893  -4.6303  -3.4593  -3.1502
    -2.6715

          k = 0.0833 0.4330 0.0000 ( 14462 PWs)   bands (ev):

   -14.2325 -13.8225  -7.0485  -6.2008  -5.6364  -4.8004  -3.4815  -3.3734
    -2.5317

          k = 0.0833 0.5292 0.0000 ( 14437 PWs)   bands (ev):

   -13.9440 -13.6791  -7.3464  -6.5630  -5.7306  -4.8589  -3.6834  -3.2542
    -2.3004

          k = 0.1667 0.2887 0.0000 ( 14491 PWs)   bands (ev):

   -14.7398 -14.0805  -6.5698  -5.5680  -5.3371  -4.8942  -3.6840  -2.8981
    -2.6098

          k = 0.1667 0.3849 0.0000 ( 14456 PWs)   bands (ev):

   -14.3131 -13.8559  -6.7788  -6.0286  -5.4829  -5.0218  -3.9853  -3.2058
    -2.5229

          k = 0.1667 0.4811 0.0000 ( 14446 PWs)   bands (ev):

   -13.9615 -13.6728  -7.0148  -6.5641  -5.5642  -4.9575  -4.1196  -3.5687
    -2.2759

          k = 0.1667 0.5774 0.0000 ( 14404 PWs)   bands (ev):

   -13.8220 -13.6009  -7.1069  -6.7600  -5.6681  -4.8949  -4.1200  -3.7405
    -2.1078

          k = 0.2500 0.4330 0.0000 ( 14433 PWs)   bands (ev):

   -13.9701 -13.6697  -6.8125  -6.5623  -5.3526  -5.0144  -4.6695  -3.4965
    -2.2930

          k = 0.2500 0.5292 0.0000 ( 14414 PWs)   bands (ev):

   -13.7568 -13.5517  -6.8979  -6.7151  -5.5473  -4.9717  -4.8529  -3.8150
    -1.9969

          k = 0.3333 0.5774 0.0000 ( 14436 PWs)   bands (ev):

   -13.6808 -13.5044  -7.0308  -6.3334  -5.8121  -5.2957  -4.7312  -3.9845
    -1.8183

     highest occupied level (ev):    -1.8183

!    total energy              =     -57.24427926 Ry
     estimated scf accuracy    <          2.4E-10 Ry

     The total energy is the sum of the following terms:
     one-electron contribution =    -448.33796167 Ry
     hartree contribution      =     228.21322430 Ry
     xc contribution           =     -13.03574346 Ry
     ewald contribution        =     175.91620157 Ry

     convergence has been achieved in  28 iterations

     Forces acting on atoms (cartesian axes, Ry/au):

     atom    1 type  1   force =     0.00000000    0.00000000    0.00000000
     atom    2 type  2   force =     0.00000000    0.00000000    0.03988049
     atom    3 type  2   force =     0.00000000    0.00000000   -0.03988049

     Total force =     0.056400     Total SCF correction =     0.000014


     Computing stress (Cartesian axis) and pressure

          total   stress  (Ry/bohr**3)                   (kbar)     P=      -27.02
  -0.00017321  -0.00000000  -0.00000000          -25.48       -0.00       -0.00
   0.00000000  -0.00017321  -0.00000000            0.00      -25.48       -0.00
   0.00000000   0.00000000  -0.00020458            0.00        0.00      -30.09


     BFGS Geometry Optimization
     Energy error            =      0.0E+00
     Gradient error          =      4.0E-02
     Cell gradient error     =      1.7E-04


     number of scf cycles    =   1
     number of bfgs steps    =   0

     enthalpy new            =     -57.2442792563 Ry

     new trust radius        =       0.0398804920 bohr
     new conv_thr            =       0.0000000100 Ry

     new unit-cell volume =   1186.55509 a.u.^3 (   175.82932 Ang^3 )
     density =      1.51171 g/cm^3

CELL_PARAMETERS (alat=  6.04712360)
   0.995669862   0.000000000   0.000000000
  -0.497834931   0.862275394   0.000000000
   0.000000000   0.000000000   6.250000000

ATOMIC_POSITIONS (crystal)
Mo            0.0000000000        0.0000000000        0.5000000000
S             0.3333333333        0.6666666667        0.4210551924
S             0.3333333333        0.6666666667        0.5789448076



     Writing output data file ./tmp/mos2.save/
     NEW-OLD atomic charge density approx. for the potential

     negative rho (up, down):  1.018E-06 0.000E+00
     extrapolated charge   17.86054, renormalised to   18.00000

     total cpu time spent up to now is        8.1 secs

     Self-consistent Calculation

     iteration #  1     ecut=    80.00 Ry     beta= 0.30
     Davidson diagonalization with overlap
     ethr =  1.00E-06,  avg # of iterations = 17.4

     negative rho (up, down):  5.711E-07 0.000E+00

     total cpu time spent up to now is        8.9 secs

     total energy              =     -57.17865979 Ry
     estimated scf accuracy    <       0.12506743 Ry

     iteration #  2     ecut=    80.00 Ry     beta= 0.30
     Davidson diagonalization with overlap
     ethr =  6.95E-04,  avg # of iterations =  4.7

     negative rho (up, down):  4.185E-07 0.000E+00

     total cpu time spent up to now is        9.2 secs

     total energy              =     -57.24471760 Ry
     estimated scf accuracy    <       0.17801495 Ry

     iteration #  3     ecut=    80.00 Ry     beta= 0.30
     Davidson diagonalization with overlap
     ethr =  6.95E-04,  avg # of iterations =  1.6

     negative rho (up, down):  4.681E-07 0.000E+00

     total cpu time spent up to now is        9.3 secs

     total energy              =     -57.25632078 Ry
     estimated scf accuracy    <       0.07803809 Ry

     iteration #  4     ecut=    80.00 Ry     beta= 0.30
     Davidson diagonalization with overlap
     ethr =  4.34E-04,  avg # of iterations =  1.0

     negative rho (up, down):  2.758E-07 0.000E+00

     total cpu time spent up to now is        9.5 secs

     total energy              =     -57.23065607 Ry
     estimated scf accuracy    <       0.08234023 Ry

     iteration #  5     ecut=    80.00 Ry     beta= 0.30
     Davidson diagonalization with overlap
     ethr =  4.34E-04,  avg # of iterations =  3.2

     negative rho (up, down):  2.222E-07 0.000E+00

     total cpu time spent up to now is        9.7 secs

     total energy              =     -57.24726889 Ry
     estimated scf accuracy    <       0.00011087 Ry

     iteration #  6     ecut=    80.00 Ry     beta= 0.30
     Davidson diagonalization with overlap
     ethr =  6.16E-07,  avg # of iterations =  9.7

     negative rho (up, down):  2.067E-07 0.000E+00

     total cpu time spent up to now is       10.2 secs

     total energy              =     -57.24845779 Ry
     estimated scf accuracy    <       0.00015569 Ry

     iteration #  7     ecut=    80.00 Ry     beta= 0.30
     Davidson diagonalization with overlap
     ethr =  6.16E-07,  avg # of iterations =  6.5

     negative rho (up, down):  5.120E-08 0.000E+00

     total cpu time spent up to now is       10.5 secs

     total energy              =     -57.24812091 Ry
     estimated scf accuracy    <       0.00175168 Ry

     iteration #  8     ecut=    80.00 Ry     beta= 0.30
     Davidson diagonalization with overlap
     ethr =  6.16E-07,  avg # of iterations =  6.4

     total cpu time spent up to now is       10.8 secs

     total energy              =     -57.24833074 Ry
     estimated scf accuracy    <       0.00001327 Ry

     iteration #  9     ecut=    80.00 Ry     beta= 0.30
     Davidson diagonalization with overlap
     ethr =  7.37E-08,  avg # of iterations =  7.8

     total cpu time spent up to now is       11.2 secs

     total energy              =     -57.24833808 Ry
     estimated scf accuracy    <       0.00014309 Ry

     iteration # 10     ecut=    80.00 Ry     beta= 0.30
     Davidson diagonalization with overlap
     ethr =  7.37E-08,  avg # of iterations =  4.5

     total cpu time spent up to now is       11.5 secs

     total energy              =     -57.24833157 Ry
     estimated scf accuracy    <       0.00002360 Ry

     iteration # 11     ecut=    80.00 Ry     beta= 0.30
     Davidson diagonalization with overlap
     ethr =  7.37E-08,  avg # of iterations =  7.0

     total cpu time spent up to now is       11.8 secs

     total energy              =     -57.24834512 Ry
     estimated scf accuracy    <       0.00011063 Ry

     iteration # 12     ecut=    80.00 Ry     beta= 0.30
     Davidson diagonalization with overlap
     ethr =  7.37E-08,  avg # of iterations =  3.2

     total cpu time spent up to now is       12.0 secs

     total energy              =     -57.24833730 Ry
     estimated scf accuracy    <       0.00004110 Ry

     iteration # 13     ecut=    80.00 Ry     beta= 0.30
     Davidson diagonalization with overlap
     ethr =  7.37E-08,  avg # of iterations =  5.7

     total cpu time spent up to now is       12.3 secs

     total energy              =     -57.24834588 Ry
     estimated scf accuracy    <       0.00000063 Ry

     iteration # 14     ecut=    80.00 Ry     beta= 0.30
     Davidson diagonalization with overlap
     ethr =  3.49E-09,  avg # of iterations =  5.4

     total cpu time spent up to now is       12.5 secs

     End of self-consistent calculation

          k = 0.0000 0.0000 0.0000 ( 14489 PWs)   bands (ev):

   -15.8427 -14.6353  -7.3782  -4.3575  -4.3575  -3.5766  -3.2208  -3.2208
    -1.9021

          k = 0.0000 0.0966 0.0000 ( 14511 PWs)   bands (ev):

   -15.7436 -14.5841  -7.2612  -4.5832  -4.2483  -4.0186  -3.3844  -2.9357
    -1.9469

          k = 0.0000 0.1933 0.0000 ( 14489 PWs)   bands (ev):

   -15.4602 -14.4381  -6.9629  -5.1123  -4.6493  -3.9436  -3.7710  -2.8649
    -2.1605

          k = 0.0000 0.2899 0.0000 ( 14477 PWs)   bands (ev):

   -15.0363 -14.2220  -6.7335  -5.5896  -5.3136  -4.2059  -3.5151  -3.1217
    -2.5697

          k = 0.0000 0.3866 0.0000 ( 14465 PWs)   bands (ev):

   -14.5549 -13.9820  -6.9842  -5.9487  -5.6923  -4.5730  -3.4251  -3.0846
    -2.8080

          k = 0.0000 0.4832 0.0000 ( 14461 PWs)   bands (ev):

   -14.1497 -13.7867  -7.3891  -6.4243  -5.7720  -4.8117  -3.6150  -2.7848
    -2.6371

          k = 0.0000-0.5799 0.0000 ( 14462 PWs)   bands (ev):

   -13.9859 -13.7102  -7.5636  -6.6024  -5.8384  -4.8941  -3.6756  -2.6827
    -2.4715

          k = 0.0837 0.1450 0.0000 ( 14513 PWs)   bands (ev):

   -15.5522 -14.4853  -7.0502  -4.9531  -4.4351  -4.0501  -3.7663  -2.7571
    -2.0765

          k = 0.0837 0.2416 0.0000 ( 14513 PWs)   bands (ev):

   -15.1976 -14.3032  -6.7560  -5.4402  -4.9744  -4.3170  -3.7349  -2.7988
    -2.3981

          k = 0.0837 0.3383 0.0000 ( 14475 PWs)   bands (ev):

   -14.7414 -14.0719  -6.7715  -5.6431  -5.6395  -4.6844  -3.4967  -3.1010
    -2.6661

          k = 0.0837 0.4349 0.0000 ( 14462 PWs)   bands (ev):

   -14.2897 -13.8482  -7.1381  -6.2540  -5.6694  -4.8576  -3.4335  -3.3908
    -2.5350

          k = 0.0837 0.5315 0.0000 ( 14437 PWs)   bands (ev):

   -13.9950 -13.7064  -7.4230  -6.6164  -5.7818  -4.9188  -3.6360  -3.2588
    -2.2956

          k = 0.1674 0.2899 0.0000 ( 14491 PWs)   bands (ev):

   -14.8080 -14.1033  -6.6713  -5.5963  -5.3953  -4.9368  -3.7230  -2.8468
    -2.6031

          k = 0.1674 0.3866 0.0000 ( 14456 PWs)   bands (ev):

   -14.3720 -13.8806  -6.8752  -6.0994  -5.5009  -5.0571  -4.0154  -3.1552
    -2.5294

          k = 0.1674 0.4832 0.0000 ( 14446 PWs)   bands (ev):

   -14.0127 -13.6987  -7.0938  -6.6402  -5.6023  -4.9900  -4.1388  -3.5213
    -2.2781

          k = 0.1674 0.5799 0.0000 ( 14404 PWs)   bands (ev):

   -13.8703 -13.6272  -7.1765  -6.8379  -5.7209  -4.9270  -4.1321  -3.6941
    -2.1043

          k = 0.2511 0.4349 0.0000 ( 14433 PWs)   bands (ev):

   -14.0215 -13.6949  -6.8954  -6.6500  -5.3692  -5.0337  -4.7084  -3.4481
    -2.2978

          k = 0.2511 0.5315 0.0000 ( 14414 PWs)   bands (ev):

   -13.8036 -13.5769  -6.9937  -6.7809  -5.5936  -4.9974  -4.8634  -3.7705
    -1.9925

          k = 0.3348 0.5799 0.0000 ( 14436 PWs)   bands (ev):

   -13.7260 -13.5291  -7.1337  -6.3839  -5.8729  -5.3232  -4.7325  -3.9428
    -1.8062

     highest occupied level (ev):    -1.8062

!    total energy              =     -57.24834630 Ry
     estimated scf accuracy    <          8.4E-09 Ry

     The total energy is the sum of the following terms:
     one-electron contribution =    -455.40893289 Ry
     hartree contribution      =     231.75666735 Ry
     xc contribution           =     -13.08035265 Ry
     ewald contribution        =     179.48427189 Ry

     convergence has been achieved in  14 iterations

     Forces acting on atoms (cartesian axes, Ry/au):

     atom    1 type  1   force =    -0.00000000    0.00000000    0.00000000
     atom    2 type  2   force =     0.00000000    0.00000000    0.02323937
     atom    3 type  2   force =     0.00000000   -0.00000000   -0.02323937

     Total force =     0.032865     Total SCF correction =     0.000063


     Computing stress (Cartesian axis) and pressure

          total   stress  (Ry/bohr**3)                   (kbar)     P=      -18.05
  -0.00012416   0.00000000   0.00000000          -18.26        0.00        0.00
   0.00000000  -0.00012416   0.00000000            0.00      -18.26        0.00
   0.00000000   0.00000000  -0.00011970            0.00        0.00      -17.61

     Energy error            =      4.1E-03
     Gradient error          =      2.3E-02
     Cell gradient error     =      1.2E-04


     number of scf cycles    =   2
     number of bfgs steps    =   1

     enthalpy old            =     -57.2442792563 Ry
     enthalpy new            =     -57.2483462956 Ry

     CASE: enthalpy_new < enthalpy_old

     new trust radius        =       0.0438685412 bohr
     new conv_thr            =       0.0000000100 Ry

     new unit-cell volume =   1172.73714 a.u.^3 (   173.78172 Ang^3 )
     density =      1.52952 g/cm^3

CELL_PARAMETERS (alat=  6.04712360)
   0.989855380  -0.000000000   0.000000000
  -0.494927690   0.857239905   0.000000000
   0.000000000   0.000000000   6.250000000

ATOMIC_POSITIONS (crystal)
Mo           -0.0000000000        0.0000000000        0.5000000000
S             0.3333333333        0.6666666667        0.4222159040
S             0.3333333333        0.6666666667        0.5777840960



     Writing output data file ./tmp/mos2.save/
     NEW-OLD atomic charge density approx. for the potential

     negative rho (up, down):  6.093E-07 0.000E+00
     extrapolated charge   17.81149, renormalised to   18.00000

     total cpu time spent up to now is       12.7 secs

     Self-consistent Calculation

     iteration #  1     ecut=    80.00 Ry     beta= 0.30
     Davidson diagonalization with overlap
     c_bands:  1 eigenvalues not converged
     c_bands:  1 eigenvalues not converged
     c_bands:  1 eigenvalues not converged
     ethr =  1.00E-06,  avg # of iterations = 18.4

     negative rho (up, down):  4.199E-07 0.000E+00

     total cpu time spent up to now is       13.6 secs

     total energy              =     -57.13812951 Ry
     estimated scf accuracy    <       0.19609310 Ry

     iteration #  2     ecut=    80.00 Ry     beta= 0.30
     Davidson diagonalization with overlap
     ethr =  1.09E-03,  avg # of iterations =  4.8

     negative rho (up, down):  3.482E-07 0.000E+00

     total cpu time spent up to now is       13.9 secs

     total energy              =     -57.24585367 Ry
     estimated scf accuracy    <       0.28215149 Ry

     iteration #  3     ecut=    80.00 Ry     beta= 0.30
     Davidson diagonalization with overlap
     ethr =  1.09E-03,  avg # of iterations =  1.6

     negative rho (up, down):  3.647E-07 0.000E+00

     total cpu time spent up to now is       14.1 secs

     total energy              =     -57.26123626 Ry
     estimated scf accuracy    <       0.12434118 Ry

     iteration #  4     ecut=    80.00 Ry     beta= 0.30
     Davidson diagonalization with overlap
     ethr =  6.91E-04,  avg # of iterations =  1.0

     negative rho (up, down):  3.429E-07 0.000E+00

     total cpu time spent up to now is       14.2 secs

     total energy              =     -57.24605930 Ry
     estimated scf accuracy    <       0.12386342 Ry

     iteration #  5     ecut=    80.00 Ry     beta= 0.30
     Davidson diagonalization with overlap
     ethr =  6.88E-04,  avg # of iterations =  1.4

     negative rho (up, down):  2.346E-07 0.000E+00

     total cpu time spent up to now is       14.4 secs

     total energy              =     -57.23898248 Ry
     estimated scf accuracy    <       0.05025530 Ry

     iteration #  6     ecut=    80.00 Ry     beta= 0.30
     Davidson diagonalization with overlap
     ethr =  2.79E-04,  avg # of iterations =  3.6

     negative rho (up, down):  2.093E-07 0.000E+00

     total cpu time spent up to now is       14.6 secs

     total energy              =     -57.24826435 Ry
     estimated scf accuracy    <       0.00169847 Ry

     iteration #  7     ecut=    80.00 Ry     beta= 0.30
     Davidson diagonalization with overlap
     ethr =  9.44E-06,  avg # of iterations =  6.7

     negative rho (up, down):  2.075E-07 0.000E+00

     total cpu time spent up to now is       14.9 secs

     total energy              =     -57.25202890 Ry
     estimated scf accuracy    <       0.00387495 Ry

     iteration #  8     ecut=    80.00 Ry     beta= 0.30
     Davidson diagonalization with overlap
     ethr =  9.44E-06,  avg # of iterations =  2.1

     negative rho (up, down):  2.083E-07 0.000E+00

     total cpu time spent up to now is       15.1 secs

     total energy              =     -57.25089080 Ry
     estimated scf accuracy    <       0.00716281 Ry

     iteration #  9     ecut=    80.00 Ry     beta= 0.30
     Davidson diagonalization with overlap
     ethr =  9.44E-06,  avg # of iterations =  2.0

     negative rho (up, down):  2.199E-07 0.000E+00

     total cpu time spent up to now is       15.3 secs

     total energy              =     -57.26001835 Ry
     estimated scf accuracy    <       0.00366525 Ry

     iteration # 10     ecut=    80.00 Ry     beta= 0.30
     Davidson diagonalization with overlap
     ethr =  9.44E-06,  avg # of iterations =  9.4

     negative rho (up, down):  3.328E-08 0.000E+00

     total cpu time spent up to now is       15.7 secs

     total energy              =     -57.20728938 Ry
     estimated scf accuracy    <       0.15992229 Ry

     iteration # 11     ecut=    80.00 Ry     beta= 0.30
     Davidson diagonalization with overlap
     ethr =  9.44E-06,  avg # of iterations = 11.2

     negative rho (up, down):  1.884E-08 0.000E+00

     total cpu time spent up to now is       16.3 secs

     total energy              =     -57.24476261 Ry
     estimated scf accuracy    <       0.06764300 Ry

     iteration # 12     ecut=    80.00 Ry     beta= 0.30
     Davidson diagonalization with overlap
     ethr =  9.44E-06,  avg # of iterations =  7.4

     negative rho (up, down):  1.645E-08 0.000E+00

     total cpu time spent up to now is       16.7 secs

     total energy              =     -57.25102828 Ry
     estimated scf accuracy    <       0.00242098 Ry

     iteration # 13     ecut=    80.00 Ry     beta= 0.30
     Davidson diagonalization with overlap
     ethr =  9.44E-06,  avg # of iterations =  1.0

     total cpu time spent up to now is       16.8 secs

     total energy              =     -57.25100405 Ry
     estimated scf accuracy    <       0.00282640 Ry

     iteration # 14     ecut=    80.00 Ry     beta= 0.30
     Davidson diagonalization with overlap
     ethr =  9.44E-06,  avg # of iterations =  1.0

     total cpu time spent up to now is       17.0 secs

     total energy              =     -57.25039167 Ry
     estimated scf accuracy    <       0.00257001 Ry

     iteration # 15     ecut=    80.00 Ry     beta= 0.30
     Davidson diagonalization with overlap
     ethr =  9.44E-06,  avg # of iterations =  2.4

     total cpu time spent up to now is       17.2 secs

     total energy              =     -57.25060028 Ry
     estimated scf accuracy    <       0.00027540 Ry

     iteration # 16     ecut=    80.00 Ry     beta= 0.30
     Davidson diagonalization with overlap
     ethr =  1.53E-06,  avg # of iterations =  5.4

     total cpu time spent up to now is       17.4 secs

     total energy              =     -57.25077671 Ry
     estimated scf accuracy    <       0.00007326 Ry

     iteration # 17     ecut=    80.00 Ry     beta= 0.30
     Davidson diagonalization with overlap
     ethr =  4.07E-07,  avg # of iterations =  4.0

     total cpu time spent up to now is       17.7 secs

     total energy              =     -57.25068956 Ry
     estimated scf accuracy    <       0.00023503 Ry

     iteration # 18     ecut=    80.00 Ry     beta= 0.30
     Davidson diagonalization with overlap
     ethr =  4.07E-07,  avg # of iterations =  5.1

     total cpu time spent up to now is       17.9 secs

     total energy              =     -57.25073582 Ry
     estimated scf accuracy    <       0.00003680 Ry

     iteration # 19     ecut=    80.00 Ry     beta= 0.30
     Davidson diagonalization with overlap
     ethr =  2.04E-07,  avg # of iterations =  4.9

     total cpu time spent up to now is       18.2 secs

     total energy              =     -57.25075352 Ry
     estimated scf accuracy    <       0.00004053 Ry

     iteration # 20     ecut=    80.00 Ry     beta= 0.30
     Davidson diagonalization with overlap
     ethr =  2.04E-07,  avg # of iterations =  1.0

     total cpu time spent up to now is       18.3 secs

     total energy              =     -57.25075293 Ry
     estimated scf accuracy    <       0.00002680 Ry

     iteration # 21     ecut=    80.00 Ry     beta= 0.30
     Davidson diagonalization with overlap
     ethr =  1.49E-07,  avg # of iterations =  1.0

     total cpu time spent up to now is       18.5 secs

     total energy              =     -57.25075134 Ry
     estimated scf accuracy    <       0.00002306 Ry

     iteration # 22     ecut=    80.00 Ry     beta= 0.30
     Davidson diagonalization with overlap
     ethr =  1.28E-07,  avg # of iterations =  1.0

     total cpu time spent up to now is       18.6 secs

     total energy              =     -57.25075206 Ry
     estimated scf accuracy    <       0.00001579 Ry

     iteration # 23     ecut=    80.00 Ry     beta= 0.30
     Davidson diagonalization with overlap
     ethr =  8.77E-08,  avg # of iterations =  1.0

     total cpu time spent up to now is       18.8 secs

     total energy              =     -57.25075088 Ry
     estimated scf accuracy    <       0.00001574 Ry

     iteration # 24     ecut=    80.00 Ry     beta= 0.30
     Davidson diagonalization with overlap
     ethr =  8.74E-08,  avg # of iterations =  1.3

     total cpu time spent up to now is       19.0 secs

     total energy              =     -57.25075117 Ry
     estimated scf accuracy    <       0.00000854 Ry

     iteration # 25     ecut=    80.00 Ry     beta= 0.30
     Davidson diagonalization with overlap
     ethr =  4.75E-08,  avg # of iterations =  1.3

     total cpu time spent up to now is       19.1 secs

     total energy              =     -57.25074995 Ry
     estimated scf accuracy    <       0.00000756 Ry

     iteration # 26     ecut=    80.00 Ry     beta= 0.30
     Davidson diagonalization with overlap
     ethr =  4.20E-08,  avg # of iterations =  2.7

     total cpu time spent up to now is       19.3 secs

     total energy              =     -57.25075041 Ry
     estimated scf accuracy    <       0.00000086 Ry

     iteration # 27     ecut=    80.00 Ry     beta= 0.30
     Davidson diagonalization with overlap
     ethr =  4.76E-09,  avg # of iterations =  5.9

     total cpu time spent up to now is       19.6 secs

     total energy              =     -57.25075075 Ry
     estimated scf accuracy    <       0.00000117 Ry

     iteration # 28     ecut=    80.00 Ry     beta= 0.30
     Davidson diagonalization with overlap
     ethr =  4.76E-09,  avg # of iterations =  3.6

     total cpu time spent up to now is       19.8 secs

     total energy              =     -57.25075097 Ry
     estimated scf accuracy    <       0.00000002 Ry

     iteration # 29     ecut=    80.00 Ry     beta= 0.30
     Davidson diagonalization with overlap
     ethr =  9.06E-11,  avg # of iterations =  8.3

     total cpu time spent up to now is       20.2 secs

     total energy              =     -57.25075099 Ry
     estimated scf accuracy    <       0.00000018 Ry

     iteration # 30     ecut=    80.00 Ry     beta= 0.30
     Davidson diagonalization with overlap
     ethr =  9.06E-11,  avg # of iterations =  2.3

     total cpu time spent up to now is       20.4 secs

     total energy              =     -57.25075096 Ry
     estimated scf accuracy    <       0.00000010 Ry

     iteration # 31     ecut=    80.00 Ry     beta= 0.30
     Davidson diagonalization with overlap
     ethr =  9.06E-11,  avg # of iterations =  5.5

     total cpu time spent up to now is       20.7 secs

     End of self-consistent calculation

          k = 0.0000 0.0000 0.0000 ( 14489 PWs)   bands (ev):

   -15.9506 -14.6558  -7.4648  -4.4508  -4.4508  -3.5206  -3.2627  -3.2627
    -1.8204

          k = 0.0000 0.0972 0.0000 ( 14511 PWs)   bands (ev):

   -15.8486 -14.6050  -7.3473  -4.6754  -4.3375  -4.0253  -3.4301  -2.9124
    -1.8682

          k = 0.0000 0.1944 0.0000 ( 14489 PWs)   bands (ev):

   -15.5568 -14.4602  -7.0516  -5.1943  -4.6844  -4.0201  -3.8254  -2.8095
    -2.0953

          k = 0.0000 0.2916 0.0000 ( 14477 PWs)   bands (ev):

   -15.1206 -14.2461  -6.8422  -5.6354  -5.3626  -4.2700  -3.5710  -3.0546
    -2.5324

          k = 0.0000 0.3888 0.0000 ( 14465 PWs)   bands (ev):

   -14.6253 -14.0084  -7.0976  -6.0006  -5.7201  -4.6449  -3.3599  -3.1143
    -2.7930

          k = 0.0000 0.4861 0.0000 ( 14461 PWs)   bands (ev):

   -14.2083 -13.8152  -7.4859  -6.4746  -5.8205  -4.8886  -3.5543  -2.7908
    -2.6176

          k =-0.0000-0.5833 0.0000 ( 14462 PWs)   bands (ev):

   -14.0398 -13.7394  -7.6529  -6.6516  -5.8998  -4.9726  -3.6168  -2.6790
    -2.4436

          k = 0.0842 0.1458 0.0000 ( 14513 PWs)   bands (ev):

   -15.6516 -14.5071  -7.1371  -5.0401  -4.4618  -4.1304  -3.8170  -2.7110
    -2.0061

          k = 0.0842 0.2430 0.0000 ( 14513 PWs)   bands (ev):

   -15.2866 -14.3265  -6.8543  -5.5036  -5.0186  -4.3724  -3.7968  -2.7368
    -2.3507

          k = 0.0842 0.3402 0.0000 ( 14475 PWs)   bands (ev):

   -14.8171 -14.0972  -6.8891  -5.6961  -5.6689  -4.7421  -3.5306  -3.0367
    -2.6530

          k = 0.0842 0.4375 0.0000 ( 14462 PWs)   bands (ev):

   -14.3523 -13.8754  -7.2423  -6.3154  -5.7031  -4.9183  -3.4022  -3.3724
    -2.5308

          k = 0.0842 0.5347 0.0000 ( 14437 PWs)   bands (ev):

   -14.0490 -13.7348  -7.5122  -6.6792  -5.8384  -4.9816  -3.5772  -3.2539
    -2.2822

          k = 0.1684 0.2916 0.0000 ( 14491 PWs)   bands (ev):

   -14.8856 -14.1281  -6.7887  -5.6238  -5.4603  -4.9829  -3.7595  -2.7785
    -2.5882

          k = 0.1684 0.3888 0.0000 ( 14456 PWs)   bands (ev):

   -14.4368 -13.9066  -6.9866  -6.1803  -5.5158  -5.0949  -4.0432  -3.0889
    -2.5293

          k = 0.1684 0.4861 0.0000 ( 14446 PWs)   bands (ev):

   -14.0671 -13.7254  -7.1857  -6.7292  -5.6419  -5.0231  -4.1532  -3.4609
    -2.2733

          k = 0.1684 0.5833 0.0000 ( 14404 PWs)   bands (ev):

   -13.9205 -13.6540  -7.2573  -6.9297  -5.7791  -4.9587  -4.1374  -3.6359
    -2.0930

          k = 0.2526 0.4375 0.0000 ( 14433 PWs)   bands (ev):

   -14.0761 -13.7207  -6.9914  -6.7519  -5.3808  -5.0530  -4.7490  -3.3854
    -2.2964

          k = 0.2526 0.5347 0.0000 ( 14414 PWs)   bands (ev):

   -13.8518 -13.6020  -7.1061  -6.8566  -5.6434  -5.0200  -4.8714  -3.7140
    -1.9805

          k = 0.3367 0.5833 0.0000 ( 14436 PWs)   bands (ev):

   -13.7719 -13.5534  -7.2545  -6.4404  -5.9418  -5.3478  -4.7298  -3.8900
    -1.7850

     highest occupied level (ev):    -1.7850

!    total energy              =     -57.25075098 Ry
     estimated scf accuracy    <          1.1E-09 Ry

     The total energy is the sum of the following terms:
     one-electron contribution =    -464.28210241 Ry
     hartree contribution      =     236.20711152 Ry
     xc contribution           =     -13.13522270 Ry
     ewald contribution        =     183.95946261 Ry

     convergence has been achieved in  31 iterations

     Forces acting on atoms (cartesian axes, Ry/au):

     atom    1 type  1   force =     0.00000000    0.00000000    0.00000000
     atom    2 type  2   force =     0.00000000    0.00000000    0.00248692
     atom    3 type  2   force =     0.00000000    0.00000000   -0.00248692

     Total force =     0.003517     Total SCF correction =     0.000075


     Computing stress (Cartesian axis) and pressure

          total   stress  (Ry/bohr**3)                   (kbar)     P=       -6.40
  -0.00005759  -0.00000000   0.00000000           -8.47       -0.00        0.00
  -0.00000000  -0.00005759   0.00000000           -0.00       -8.47        0.00
  -0.00000000  -0.00000000  -0.00001534           -0.00       -0.00       -2.26

     Energy error            =      2.4E-03
     Gradient error          =      2.5E-03
     Cell gradient error     =      5.8E-05


     number of scf cycles    =   3
     number of bfgs steps    =   2

     enthalpy old            =     -57.2483462956 Ry
     enthalpy new            =     -57.2507509802 Ry

     CASE: enthalpy_new < enthalpy_old

     new trust radius        =       0.0215511880 bohr
     new conv_thr            =       0.0000000025 Ry

     new unit-cell volume =   1165.36850 a.u.^3 (   172.68979 Ang^3 )
     density =      1.53919 g/cm^3

CELL_PARAMETERS (alat=  6.04712360)
   0.986740706  -0.000000000   0.000000000
  -0.493370353   0.854542518   0.000000000
   0.000000000   0.000000000   6.250000000

ATOMIC_POSITIONS (crystal)
Mo           -0.0000000000        0.0000000000        0.5000000000
S             0.3333333333        0.6666666667        0.4225441696
S             0.3333333333        0.6666666667        0.5774558304



     Writing output data file ./tmp/mos2.save/
     NEW-OLD atomic charge density approx. for the potential

     negative rho (up, down):  1.395E-07 0.000E+00
     extrapolated charge   17.89884, renormalised to   18.00000

     total cpu time spent up to now is       20.9 secs

     Self-consistent Calculation

     iteration #  1     ecut=    80.00 Ry     beta= 0.30
     Davidson diagonalization with overlap
     ethr =  1.00E-06,  avg # of iterations = 13.6

     negative rho (up, down):  9.047E-08 0.000E+00

     total cpu time spent up to now is       21.6 secs

     total energy              =     -57.22263639 Ry
     estimated scf accuracy    <       0.04631087 Ry

     iteration #  2     ecut=    80.00 Ry     beta= 0.30
     Davidson diagonalization with overlap
     ethr =  2.57E-04,  avg # of iterations =  4.9

     negative rho (up, down):  7.326E-08 0.000E+00

     total cpu time spent up to now is       21.8 secs

     total energy              =     -57.25017346 Ry
     estimated scf accuracy    <       0.07328146 Ry

     iteration #  3     ecut=    80.00 Ry     beta= 0.30
     Davidson diagonalization with overlap
     ethr =  2.57E-04,  avg # of iterations =  1.7

     negative rho (up, down):  7.696E-08 0.000E+00

     total cpu time spent up to now is       22.0 secs

     total energy              =     -57.25399237 Ry
     estimated scf accuracy    <       0.03287600 Ry

     iteration #  4     ecut=    80.00 Ry     beta= 0.30
     Davidson diagonalization with overlap
     ethr =  1.83E-04,  avg # of iterations =  1.0

     negative rho (up, down):  7.076E-08 0.000E+00

     total cpu time spent up to now is       22.2 secs

     total energy              =     -57.24947462 Ry
     estimated scf accuracy    <       0.03270378 Ry

     iteration #  5     ecut=    80.00 Ry     beta= 0.30
     Davidson diagonalization with overlap
     ethr =  1.82E-04,  avg # of iterations =  1.4

     negative rho (up, down):  4.725E-08 0.000E+00

     total cpu time spent up to now is       22.3 secs

     total energy              =     -57.24835792 Ry
     estimated scf accuracy    <       0.01166594 Ry

     iteration #  6     ecut=    80.00 Ry     beta= 0.30
     Davidson diagonalization with overlap
     ethr =  6.48E-05,  avg # of iterations =  3.8

     negative rho (up, down):  4.083E-08 0.000E+00

     total cpu time spent up to now is       22.5 secs

     total energy              =     -57.25035296 Ry
     estimated scf accuracy    <       0.00075917 Ry

     iteration #  7     ecut=    80.00 Ry     beta= 0.30
     Davidson diagonalization with overlap
     ethr =  4.22E-06,  avg # of iterations =  5.7

     negative rho (up, down):  4.047E-08 0.000E+00

     total cpu time spent up to now is       22.8 secs

     total energy              =     -57.25124705 Ry
     estimated scf accuracy    <       0.00069226 Ry

     iteration #  8     ecut=    80.00 Ry     beta= 0.30
     Davidson diagonalization with overlap
     ethr =  3.85E-06,  avg # of iterations =  1.4

     negative rho (up, down):  4.085E-08 0.000E+00

     total cpu time spent up to now is       23.0 secs

     total energy              =     -57.25109886 Ry
     estimated scf accuracy    <       0.00102219 Ry

     iteration #  9     ecut=    80.00 Ry     beta= 0.30
     Davidson diagonalization with overlap
     ethr =  3.85E-06,  avg # of iterations =  1.0

     negative rho (up, down):  3.990E-08 0.000E+00

     total cpu time spent up to now is       23.1 secs

     total energy              =     -57.25188642 Ry
     estimated scf accuracy    <       0.00064655 Ry

     iteration # 10     ecut=    80.00 Ry     beta= 0.30
     Davidson diagonalization with overlap
     ethr =  3.59E-06,  avg # of iterations =  5.8

     total cpu time spent up to now is       23.4 secs

     total energy              =     -57.25268502 Ry
     estimated scf accuracy    <       0.00968586 Ry

     iteration # 11     ecut=    80.00 Ry     beta= 0.30
     Davidson diagonalization with overlap
     ethr =  3.59E-06,  avg # of iterations =  2.0

     total cpu time spent up to now is       23.6 secs

     total energy              =     -57.24807229 Ry
     estimated scf accuracy    <       0.01073990 Ry

     iteration # 12     ecut=    80.00 Ry     beta= 0.30
     Davidson diagonalization with overlap
     ethr =  3.59E-06,  avg # of iterations =  7.9

     total cpu time spent up to now is       24.0 secs

     total energy              =     -57.25120306 Ry
     estimated scf accuracy    <       0.00399936 Ry

     iteration # 13     ecut=    80.00 Ry     beta= 0.30
     Davidson diagonalization with overlap
     ethr =  3.59E-06,  avg # of iterations =  2.0

     total cpu time spent up to now is       24.2 secs

     total energy              =     -57.25090836 Ry
     estimated scf accuracy    <       0.00234268 Ry

     iteration # 14     ecut=    80.00 Ry     beta= 0.30
     Davidson diagonalization with overlap
     ethr =  3.59E-06,  avg # of iterations =  3.5

     total cpu time spent up to now is       24.4 secs

     total energy              =     -57.25097588 Ry
     estimated scf accuracy    <       0.00058776 Ry

     iteration # 15     ecut=    80.00 Ry     beta= 0.30
     Davidson diagonalization with overlap
     ethr =  3.27E-06,  avg # of iterations =  1.5

     total cpu time spent up to now is       24.5 secs

     total energy              =     -57.25101003 Ry
     estimated scf accuracy    <       0.00026408 Ry

     iteration # 16     ecut=    80.00 Ry     beta= 0.30
     Davidson diagonalization with overlap
     ethr =  1.47E-06,  avg # of iterations =  1.7

     total cpu time spent up to now is       24.7 secs

     total energy              =     -57.25096806 Ry
     estimated scf accuracy    <       0.00021944 Ry

     iteration # 17     ecut=    80.00 Ry     beta= 0.30
     Davidson diagonalization with overlap
     ethr =  1.22E-06,  avg # of iterations =  3.9

     total cpu time spent up to now is       24.9 secs

     total energy              =     -57.25102862 Ry
     estimated scf accuracy    <       0.00000128 Ry

     iteration # 18     ecut=    80.00 Ry     beta= 0.30
     Davidson diagonalization with overlap
     ethr =  7.10E-09,  avg # of iterations = 11.5

     total cpu time spent up to now is       25.5 secs

     total energy              =     -57.25104594 Ry
     estimated scf accuracy    <       0.00006779 Ry

     iteration # 19     ecut=    80.00 Ry     beta= 0.30
     Davidson diagonalization with overlap
     ethr =  7.10E-09,  avg # of iterations =  3.3

     total cpu time spent up to now is       25.7 secs

     total energy              =     -57.25104296 Ry
     estimated scf accuracy    <       0.00008549 Ry

     iteration # 20     ecut=    80.00 Ry     beta= 0.30
     Davidson diagonalization with overlap
     ethr =  7.10E-09,  avg # of iterations =  1.4

     total cpu time spent up to now is       25.8 secs

     total energy              =     -57.25103510 Ry
     estimated scf accuracy    <       0.00007616 Ry

     iteration # 21     ecut=    80.00 Ry     beta= 0.30
     Davidson diagonalization with overlap
     ethr =  7.10E-09,  avg # of iterations =  5.6

     total cpu time spent up to now is       26.1 secs

     total energy              =     -57.25103407 Ry
     estimated scf accuracy    <       0.00003228 Ry

     iteration # 22     ecut=    80.00 Ry     beta= 0.30
     Davidson diagonalization with overlap
     ethr =  7.10E-09,  avg # of iterations =  4.1

     total cpu time spent up to now is       26.3 secs

     total energy              =     -57.25103181 Ry
     estimated scf accuracy    <       0.00001778 Ry

     iteration # 23     ecut=    80.00 Ry     beta= 0.30
     Davidson diagonalization with overlap
     ethr =  7.10E-09,  avg # of iterations =  5.5

     total cpu time spent up to now is       26.6 secs

     total energy              =     -57.25103205 Ry
     estimated scf accuracy    <       0.00000321 Ry

     iteration # 24     ecut=    80.00 Ry     beta= 0.30
     Davidson diagonalization with overlap
     ethr =  7.10E-09,  avg # of iterations =  4.0

     total cpu time spent up to now is       26.9 secs

     total energy              =     -57.25103251 Ry
     estimated scf accuracy    <       0.00000011 Ry

     iteration # 25     ecut=    80.00 Ry     beta= 0.30
     Davidson diagonalization with overlap
     ethr =  5.88E-10,  avg # of iterations =  5.1

     total cpu time spent up to now is       27.1 secs

     End of self-consistent calculation

          k = 0.0000 0.0000 0.0000 ( 14489 PWs)   bands (ev):

   -15.9858 -14.6629  -7.4926  -4.4643  -4.4643  -3.5023  -3.2569  -3.2569
    -1.7939

          k = 0.0000 0.0975 0.0000 ( 14511 PWs)   bands (ev):

   -15.8823 -14.6119  -7.3744  -4.6895  -4.3490  -4.0218  -3.4263  -2.8919
    -1.8414

          k = 0.0000 0.1950 0.0000 ( 14489 PWs)   bands (ev):

   -15.5862 -14.4665  -7.0782  -5.2070  -4.6903  -4.0258  -3.8263  -2.7817
    -2.0698

          k = 0.0000 0.2926 0.0000 ( 14477 PWs)   bands (ev):

   -15.1435 -14.2514  -6.8739  -5.6387  -5.3747  -4.2757  -3.5679  -3.0260
    -2.5142

          k = 0.0000 0.3901 0.0000 ( 14465 PWs)   bands (ev):

   -14.6404 -14.0126  -7.1312  -6.0160  -5.7202  -4.6546  -3.3342  -3.1011
    -2.7813

          k = 0.0000 0.4876 0.0000 ( 14461 PWs)   bands (ev):

   -14.2164 -13.8183  -7.5165  -6.4915  -5.8301  -4.9008  -3.5313  -2.7696
    -2.6023

          k =-0.0000-0.5851 0.0000 ( 14462 PWs)   bands (ev):

   -14.0448 -13.7421  -7.6822  -6.6691  -5.9149  -4.9857  -3.5947  -2.6548
    -2.4248

          k = 0.0845 0.1463 0.0000 ( 14513 PWs)   bands (ev):

   -15.6824 -14.5135  -7.1635  -5.0539  -4.4649  -4.1379  -3.8172  -2.6841
    -1.9797

          k = 0.0845 0.2438 0.0000 ( 14513 PWs)   bands (ev):

   -15.3119 -14.3322  -6.8831  -5.5116  -5.0280  -4.3778  -3.7971  -2.7061
    -2.3290

          k = 0.0845 0.3413 0.0000 ( 14475 PWs)   bands (ev):

   -14.8352 -14.1017  -6.9232  -5.7108  -5.6669  -4.7508  -3.5239  -3.0076
    -2.6385

          k = 0.0845 0.4388 0.0000 ( 14462 PWs)   bands (ev):

   -14.3628 -13.8786  -7.2740  -6.3342  -5.7060  -4.9282  -3.3909  -3.3469
    -2.5149

          k = 0.0845 0.5363 0.0000 ( 14437 PWs)   bands (ev):

   -14.0542 -13.7371  -7.5411  -6.7004  -5.8512  -4.9917  -3.5543  -3.2364
    -2.2627

          k = 0.1689 0.2926 0.0000 ( 14491 PWs)   bands (ev):

   -14.9047 -14.1326  -6.8225  -5.6215  -5.4748  -4.9921  -3.7550  -2.7457
    -2.5726

          k = 0.1689 0.3901 0.0000 ( 14456 PWs)   bands (ev):

   -14.4487 -13.9097  -7.0194  -6.2027  -5.5099  -5.1026  -4.0410  -3.0587
    -2.5149

          k = 0.1689 0.4876 0.0000 ( 14446 PWs)   bands (ev):

   -14.0726 -13.7270  -7.2143  -6.7572  -5.6469  -5.0281  -4.1462  -3.4353
    -2.2568

          k = 0.1689 0.5851 0.0000 ( 14404 PWs)   bands (ev):

   -13.9234 -13.6550  -7.2831  -6.9597  -5.7918  -4.9621  -4.1268  -3.6126
    -2.0741

          k = 0.2534 0.4388 0.0000 ( 14433 PWs)   bands (ev):

   -14.0817 -13.7220  -7.0205  -6.7831  -5.3732  -5.0558  -4.7546  -3.3579
    -2.2814

          k = 0.2534 0.5363 0.0000 ( 14414 PWs)   bands (ev):

   -13.8535 -13.6019  -7.1426  -6.8799  -5.6529  -5.0173  -4.8695  -3.6905
    -1.9616

          k = 0.3378 0.5851 0.0000 ( 14436 PWs)   bands (ev):

   -13.7722 -13.5524  -7.2943  -6.4569  -5.9603  -5.3446  -4.7244  -3.8684
    -1.7632

     highest occupied level (ev):    -1.7632

!    total energy              =     -57.25103257 Ry
     estimated scf accuracy    <          2.6E-10 Ry

     The total energy is the sum of the following terms:
     one-electron contribution =    -468.18662217 Ry
     hartree contribution      =     238.17177985 Ry
     xc contribution           =     -13.15742388 Ry
     ewald contribution        =     185.92123363 Ry

     convergence has been achieved in  25 iterations

     Forces acting on atoms (cartesian axes, Ry/au):

     atom    1 type  1   force =    -0.00000000   -0.00000000    0.00000000
     atom    2 type  2   force =     0.00000000    0.00000000   -0.00493297
     atom    3 type  2   force =    -0.00000000   -0.00000000    0.00493297

     Total force =     0.006976     Total SCF correction =     0.000024


     Computing stress (Cartesian axis) and pressure

          total   stress  (Ry/bohr**3)                   (kbar)     P=       -1.56
  -0.00002681  -0.00000000   0.00000000           -3.94       -0.00        0.00
  -0.00000000  -0.00002681   0.00000000           -0.00       -3.94        0.00
  -0.00000000  -0.00000000   0.00002190           -0.00       -0.00        3.22

     Energy error            =      2.8E-04
     Gradient error          =      4.9E-03
     Cell gradient error     =      2.7E-05


     number of scf cycles    =   4
     number of bfgs steps    =   3

     enthalpy old            =     -57.2507509802 Ry
     enthalpy new            =     -57.2510325730 Ry

     CASE: enthalpy_new < enthalpy_old

     new trust radius        =       0.0103988572 bohr
     new conv_thr            =       0.0000000028 Ry

     new unit-cell volume =   1161.82129 a.u.^3 (   172.16415 Ang^3 )
     density =      1.54389 g/cm^3

CELL_PARAMETERS (alat=  6.04712360)
   0.985237816  -0.000000000   0.000000000
  -0.492618908   0.853240977   0.000000000
   0.000000000   0.000000000   6.250000000

ATOMIC_POSITIONS (crystal)
Mo           -0.0000000000       -0.0000000000        0.5000000000
S             0.3333333333        0.6666666667        0.4224817081
S             0.3333333333        0.6666666667        0.5775182919



     Writing output data file ./tmp/mos2.save/
     NEW-OLD atomic charge density approx. for the potential

     negative rho (up, down):  2.665E-08 0.000E+00
     extrapolated charge   17.95115, renormalised to   18.00000

     total cpu time spent up to now is       27.3 secs

     Self-consistent Calculation

     iteration #  1     ecut=    80.00 Ry     beta= 0.30
     Davidson diagonalization with overlap
     ethr =  1.00E-06,  avg # of iterations =  9.6

     negative rho (up, down):  1.417E-08 0.000E+00

     total cpu time spent up to now is       27.8 secs

     total energy              =     -57.24605042 Ry
     estimated scf accuracy    <       0.00732148 Ry

     iteration #  2     ecut=    80.00 Ry     beta= 0.30
     Davidson diagonalization with overlap
     ethr =  4.07E-05,  avg # of iterations =  5.3

     negative rho (up, down):  1.048E-08 0.000E+00

     total cpu time spent up to now is       28.1 secs

     total energy              =     -57.25124451 Ry
     estimated scf accuracy    <       0.01317321 Ry

     iteration #  3     ecut=    80.00 Ry     beta= 0.30
     Davidson diagonalization with overlap
     ethr =  4.07E-05,  avg # of iterations =  1.6

     negative rho (up, down):  1.052E-08 0.000E+00

     total cpu time spent up to now is       28.2 secs

     total energy              =     -57.25160951 Ry
     estimated scf accuracy    <       0.00640314 Ry

     iteration #  4     ecut=    80.00 Ry     beta= 0.30
     Davidson diagonalization with overlap
     ethr =  3.56E-05,  avg # of iterations =  1.0

     total cpu time spent up to now is       28.4 secs

     total energy              =     -57.25214507 Ry
     estimated scf accuracy    <       0.00577007 Ry

     iteration #  5     ecut=    80.00 Ry     beta= 0.30
     Davidson diagonalization with overlap
     ethr =  3.21E-05,  avg # of iterations =  1.0

     total cpu time spent up to now is       28.5 secs

     total energy              =     -57.25960754 Ry
     estimated scf accuracy    <       0.00660541 Ry

     iteration #  6     ecut=    80.00 Ry     beta= 0.30
     Davidson diagonalization with overlap
     ethr =  3.21E-05,  avg # of iterations =  5.7

     negative rho (up, down):  1.027E-08 0.000E+00

     total cpu time spent up to now is       28.8 secs

     total energy              =     -57.23961015 Ry
     estimated scf accuracy    <       0.08851240 Ry

     iteration #  7     ecut=    80.00 Ry     beta= 0.30
     Davidson diagonalization with overlap
     ethr =  3.21E-05,  avg # of iterations =  6.5

     total cpu time spent up to now is       29.1 secs

     total energy              =     -57.25096129 Ry
     estimated scf accuracy    <       0.00035394 Ry

     iteration #  8     ecut=    80.00 Ry     beta= 0.30
     Davidson diagonalization with overlap
     ethr =  1.97E-06,  avg # of iterations =  4.7

     total cpu time spent up to now is       29.4 secs

     total energy              =     -57.25111124 Ry
     estimated scf accuracy    <       0.00014631 Ry

     iteration #  9     ecut=    80.00 Ry     beta= 0.30
     Davidson diagonalization with overlap
     ethr =  8.13E-07,  avg # of iterations =  3.6

     total cpu time spent up to now is       29.6 secs

     total energy              =     -57.25117897 Ry
     estimated scf accuracy    <       0.00002286 Ry

     iteration # 10     ecut=    80.00 Ry     beta= 0.30
     Davidson diagonalization with overlap
     ethr =  1.27E-07,  avg # of iterations =  7.9

     total cpu time spent up to now is       30.0 secs

     total energy              =     -57.25153866 Ry
     estimated scf accuracy    <       0.00080637 Ry

     iteration # 11     ecut=    80.00 Ry     beta= 0.30
     Davidson diagonalization with overlap
     ethr =  1.27E-07,  avg # of iterations =  8.3

     total cpu time spent up to now is       30.4 secs

     total energy              =     -57.25161032 Ry
     estimated scf accuracy    <       0.00321734 Ry

     iteration # 12     ecut=    80.00 Ry     beta= 0.30
     Davidson diagonalization with overlap
     ethr =  1.27E-07,  avg # of iterations =  1.0

     total cpu time spent up to now is       30.6 secs

     total energy              =     -57.25029996 Ry
     estimated scf accuracy    <       0.00311155 Ry

     iteration # 13     ecut=    80.00 Ry     beta= 0.30
     Davidson diagonalization with overlap
     ethr =  1.27E-07,  avg # of iterations = 11.6

     total cpu time spent up to now is       31.2 secs

     total energy              =     -57.25105684 Ry
     estimated scf accuracy    <       0.00109792 Ry

     iteration # 14     ecut=    80.00 Ry     beta= 0.30
     Davidson diagonalization with overlap
     ethr =  1.27E-07,  avg # of iterations =  7.4

     total cpu time spent up to now is       31.6 secs

     total energy              =     -57.25115342 Ry
     estimated scf accuracy    <       0.00007118 Ry

     iteration # 15     ecut=    80.00 Ry     beta= 0.30
     Davidson diagonalization with overlap
     ethr =  1.27E-07,  avg # of iterations =  1.8

     total cpu time spent up to now is       31.7 secs

     total energy              =     -57.25118099 Ry
     estimated scf accuracy    <       0.00011046 Ry

     iteration # 16     ecut=    80.00 Ry     beta= 0.30
     Davidson diagonalization with overlap
     ethr =  1.27E-07,  avg # of iterations =  4.4

     total cpu time spent up to now is       32.0 secs

     total energy              =     -57.25118514 Ry
     estimated scf accuracy    <       0.00031570 Ry

     iteration # 17     ecut=    80.00 Ry     beta= 0.30
     Davidson diagonalization with overlap
     ethr =  1.27E-07,  avg # of iterations =  1.0

     total cpu time spent up to now is       32.1 secs

     total energy              =     -57.25117779 Ry
     estimated scf accuracy    <       0.00031335 Ry

     iteration # 18     ecut=    80.00 Ry     beta= 0.30
     Davidson diagonalization with overlap
     ethr =  1.27E-07,  avg # of iterations =  1.0

     total cpu time spent up to now is       32.3 secs

     total energy              =     -57.25118370 Ry
     estimated scf accuracy    <       0.00029528 Ry

     iteration # 19     ecut=    80.00 Ry     beta= 0.30
     Davidson diagonalization with overlap
     ethr =  1.27E-07,  avg # of iterations =  1.0

     total cpu time spent up to now is       32.5 secs

     total energy              =     -57.25117098 Ry
     estimated scf accuracy    <       0.00031244 Ry

     iteration # 20     ecut=    80.00 Ry     beta= 0.30
     Davidson diagonalization with overlap
     ethr =  1.27E-07,  avg # of iterations =  1.0

     total cpu time spent up to now is       32.6 secs

     total energy              =     -57.25118952 Ry
     estimated scf accuracy    <       0.00027245 Ry

     iteration # 21     ecut=    80.00 Ry     beta= 0.30
     Davidson diagonalization with overlap
     ethr =  1.27E-07,  avg # of iterations =  1.0

     negative rho (up, down):  1.207E-08 0.000E+00

     total cpu time spent up to now is       32.8 secs

     total energy              =     -57.25112537 Ry
     estimated scf accuracy    <       0.00032931 Ry

     iteration # 22     ecut=    80.00 Ry     beta= 0.30
     Davidson diagonalization with overlap
     ethr =  1.27E-07,  avg # of iterations =  4.4

     total cpu time spent up to now is       33.0 secs

     total energy              =     -57.25113899 Ry
     estimated scf accuracy    <       0.00007939 Ry

     iteration # 23     ecut=    80.00 Ry     beta= 0.30
     Davidson diagonalization with overlap
     ethr =  1.27E-07,  avg # of iterations =  1.0

     total cpu time spent up to now is       33.2 secs

     total energy              =     -57.25111494 Ry
     estimated scf accuracy    <       0.00006876 Ry

     iteration # 24     ecut=    80.00 Ry     beta= 0.30
     Davidson diagonalization with overlap
     ethr =  1.27E-07,  avg # of iterations =  5.7

     total cpu time spent up to now is       33.5 secs

     total energy              =     -57.25113545 Ry
     estimated scf accuracy    <       0.00001146 Ry

     iteration # 25     ecut=    80.00 Ry     beta= 0.30
     Davidson diagonalization with overlap
     ethr =  6.37E-08,  avg # of iterations =  1.3

     total cpu time spent up to now is       33.7 secs

     total energy              =     -57.25113376 Ry
     estimated scf accuracy    <       0.00000676 Ry

     iteration # 26     ecut=    80.00 Ry     beta= 0.30
     Davidson diagonalization with overlap
     ethr =  3.76E-08,  avg # of iterations =  3.4

     total cpu time spent up to now is       33.9 secs

     total energy              =     -57.25113495 Ry
     estimated scf accuracy    <       0.00000007 Ry

     iteration # 27     ecut=    80.00 Ry     beta= 0.30
     Davidson diagonalization with overlap
     ethr =  3.94E-10,  avg # of iterations = 11.0

     total cpu time spent up to now is       34.4 secs

     total energy              =     -57.25113438 Ry
     estimated scf accuracy    <       0.00000509 Ry

     iteration # 28     ecut=    80.00 Ry     beta= 0.30
     Davidson diagonalization with overlap
     ethr =  3.94E-10,  avg # of iterations =  9.4

     total cpu time spent up to now is       34.9 secs

     total energy              =     -57.25113523 Ry
     estimated scf accuracy    <       0.00000011 Ry

     iteration # 29     ecut=    80.00 Ry     beta= 0.30
     Davidson diagonalization with overlap
     ethr =  3.94E-10,  avg # of iterations =  1.0

     total cpu time spent up to now is       35.0 secs

     total energy              =     -57.25113519 Ry
     estimated scf accuracy    <       0.00000011 Ry

     iteration # 30     ecut=    80.00 Ry     beta= 0.30
     Davidson diagonalization with overlap
     ethr =  3.94E-10,  avg # of iterations =  3.2

     total cpu time spent up to now is       35.3 secs

     End of self-consistent calculation

          k = 0.0000 0.0000 0.0000 ( 14489 PWs)   bands (ev):

   -15.9846 -14.6636  -7.4907  -4.4416  -4.4416  -3.5031  -3.2318  -3.2318
    -1.7949

          k = 0.0000 0.0977 0.0000 ( 14511 PWs)   bands (ev):

   -15.8804 -14.6121  -7.3717  -4.6680  -4.3255  -4.0137  -3.4023  -2.8771
    -1.8408

          k = 0.0000 0.1953 0.0000 ( 14489 PWs)   bands (ev):

   -15.5824 -14.4653  -7.0735  -5.1884  -4.6829  -4.0004  -3.8044  -2.7704
    -2.0653

          k = 0.0000 0.2930 0.0000 ( 14477 PWs)   bands (ev):

   -15.1365 -14.2480  -6.8674  -5.6236  -5.3694  -4.2560  -3.5401  -3.0185
    -2.5073

          k = 0.0000 0.3907 0.0000 ( 14465 PWs)   bands (ev):

   -14.6293 -14.0066  -7.1257  -6.0138  -5.7087  -4.6366  -3.3295  -3.0717
    -2.7729

          k = 0.0000 0.4883 0.0000 ( 14461 PWs)   bands (ev):

   -14.2013 -13.8100  -7.5144  -6.4922  -5.8219  -4.8839  -3.5281  -2.7403
    -2.5913

          k =-0.0000-0.5860 0.0000 ( 14462 PWs)   bands (ev):

   -14.0279 -13.7328  -7.6820  -6.6710  -5.9081  -4.9691  -3.5920  -2.6259
    -2.4128

          k = 0.0846 0.1465 0.0000 ( 14513 PWs)   bands (ev):

   -15.6792 -14.5128  -7.1594  -5.0344  -4.4572  -4.1132  -3.7958  -2.6703
    -1.9763

          k = 0.0846 0.2442 0.0000 ( 14513 PWs)   bands (ev):

   -15.3062 -14.3296  -6.8770  -5.4950  -5.0212  -4.3610  -3.7710  -2.6940
    -2.3219

          k = 0.0846 0.3418 0.0000 ( 14475 PWs)   bands (ev):

   -14.8258 -14.0967  -6.9165  -5.7057  -5.6532  -4.7374  -3.5009  -2.9983
    -2.6260

          k = 0.0846 0.4395 0.0000 ( 14462 PWs)   bands (ev):

   -14.3492 -13.8710  -7.2700  -6.3323  -5.6956  -4.9154  -3.3720  -3.3409
    -2.4962

          k = 0.0846 0.5372 0.0000 ( 14437 PWs)   bands (ev):

   -14.0374 -13.7278  -7.5402  -6.7008  -5.8436  -4.9783  -3.5505  -3.2168
    -2.2435

          k = 0.1692 0.2930 0.0000 ( 14491 PWs)   bands (ev):

   -14.8959 -14.1280  -6.8153  -5.6068  -5.4657  -4.9843  -3.7340  -2.7338
    -2.5594

          k = 0.1692 0.3907 0.0000 ( 14456 PWs)   bands (ev):

   -14.4360 -13.9025  -7.0138  -6.1967  -5.4961  -5.0966  -4.0269  -3.0491
    -2.4965

          k = 0.1692 0.4883 0.0000 ( 14446 PWs)   bands (ev):

   -14.0562 -13.7176  -7.2116  -6.7549  -5.6368  -5.0209  -4.1316  -3.4289
    -2.2375

          k = 0.1692 0.5860 0.0000 ( 14404 PWs)   bands (ev):

   -13.9053 -13.6447  -7.2820  -6.9589  -5.7834  -4.9537  -4.1116  -3.6081
    -2.0546

          k = 0.2537 0.4395 0.0000 ( 14433 PWs)   bands (ev):

   -14.0654 -13.7125  -7.0168  -6.7795  -5.3592  -5.0515  -4.7450  -3.3501
    -2.2626

          k = 0.2537 0.5372 0.0000 ( 14414 PWs)   bands (ev):

   -13.8347 -13.5908  -7.1413  -6.8776  -5.6442  -5.0050  -4.8643  -3.6851
    -1.9425

          k = 0.3383 0.5860 0.0000 ( 14436 PWs)   bands (ev):

   -13.7525 -13.5407  -7.2936  -6.4543  -5.9549  -5.3306  -4.7193  -3.8637
    -1.7444

     highest occupied level (ev):    -1.7444

!    total energy              =     -57.25113521 Ry
     estimated scf accuracy    <          2.3E-09 Ry

     The total energy is the sum of the following terms:
     one-electron contribution =    -469.38664387 Ry
     hartree contribution      =     238.78214374 Ry
     xc contribution           =     -13.16232746 Ry
     ewald contribution        =     186.51569238 Ry

     convergence has been achieved in  30 iterations

     Forces acting on atoms (cartesian axes, Ry/au):

     atom    1 type  1   force =     0.00000000    0.00000000    0.00000000
     atom    2 type  2   force =    -0.00000000   -0.00000000   -0.00525808
     atom    3 type  2   force =     0.00000000    0.00000000    0.00525808

     Total force =     0.007436     Total SCF correction =     0.000104


     Computing stress (Cartesian axis) and pressure

          total   stress  (Ry/bohr**3)                   (kbar)     P=       -0.56
  -0.00001749  -0.00000000   0.00000000           -2.57       -0.00        0.00
  -0.00000000  -0.00001749   0.00000000           -0.00       -2.57        0.00
   0.00000000   0.00000000   0.00002363            0.00        0.00        3.48

     Energy error            =      1.0E-04
     Gradient error          =      5.3E-03
     Cell gradient error     =      1.7E-05


     number of scf cycles    =   5
     number of bfgs steps    =   4

     enthalpy old            =     -57.2510325730 Ry
     enthalpy new            =     -57.2511352114 Ry

     CASE: enthalpy_new < enthalpy_old

     new trust radius        =       0.0114387430 bohr
     new conv_thr            =       0.0000000010 Ry

     new unit-cell volume =   1157.92561 a.u.^3 (   171.58687 Ang^3 )
     density =      1.54908 g/cm^3

CELL_PARAMETERS (alat=  6.04712360)
   0.983584638  -0.000000000   0.000000000
  -0.491792319   0.851809283   0.000000000
   0.000000000   0.000000000   6.250000000

ATOMIC_POSITIONS (crystal)
Mo           -0.0000000000       -0.0000000000        0.5000000000
S             0.3333333333        0.6666666667        0.4223134301
S             0.3333333333        0.6666666667        0.5776865699



     Writing output data file ./tmp/mos2.save/
     NEW-OLD atomic charge density approx. for the potential

     negative rho (up, down):  6.209E-08 0.000E+00
     extrapolated charge   17.94617, renormalised to   18.00000

     total cpu time spent up to now is       35.4 secs

     Self-consistent Calculation

     iteration #  1     ecut=    80.00 Ry     beta= 0.30
     Davidson diagonalization with overlap
     ethr =  1.00E-06,  avg # of iterations =  9.7

     negative rho (up, down):  3.705E-08 0.000E+00

     total cpu time spent up to now is       35.9 secs

     total energy              =     -57.24568851 Ry
     estimated scf accuracy    <       0.00754589 Ry

     iteration #  2     ecut=    80.00 Ry     beta= 0.30
     Davidson diagonalization with overlap
     ethr =  4.19E-05,  avg # of iterations =  5.5

     negative rho (up, down):  2.952E-08 0.000E+00

     total cpu time spent up to now is       36.2 secs

     total energy              =     -57.25138912 Ry
     estimated scf accuracy    <       0.01603082 Ry

     iteration #  3     ecut=    80.00 Ry     beta= 0.30
     Davidson diagonalization with overlap
     ethr =  4.19E-05,  avg # of iterations =  1.8

     negative rho (up, down):  2.592E-08 0.000E+00

     total cpu time spent up to now is       36.4 secs

     total energy              =     -57.25111489 Ry
     estimated scf accuracy    <       0.00782176 Ry

     iteration #  4     ecut=    80.00 Ry     beta= 0.30
     Davidson diagonalization with overlap
     ethr =  4.19E-05,  avg # of iterations =  1.0

     negative rho (up, down):  1.390E-08 0.000E+00

     total cpu time spent up to now is       36.5 secs

     total energy              =     -57.25106439 Ry
     estimated scf accuracy    <       0.00461181 Ry

     iteration #  5     ecut=    80.00 Ry     beta= 0.30
     Davidson diagonalization with overlap
     ethr =  2.56E-05,  avg # of iterations =  1.2

     total cpu time spent up to now is       36.7 secs

     total energy              =     -57.25015889 Ry
     estimated scf accuracy    <       0.00332121 Ry

     iteration #  6     ecut=    80.00 Ry     beta= 0.30
     Davidson diagonalization with overlap
     ethr =  1.85E-05,  avg # of iterations =  4.7

     total cpu time spent up to now is       36.9 secs

     total energy              =     -57.25124640 Ry
     estimated scf accuracy    <       0.00043330 Ry

     iteration #  7     ecut=    80.00 Ry     beta= 0.30
     Davidson diagonalization with overlap
     ethr =  2.41E-06,  avg # of iterations =  2.6

     total cpu time spent up to now is       37.1 secs

     total energy              =     -57.25148867 Ry
     estimated scf accuracy    <       0.00031755 Ry

     iteration #  8     ecut=    80.00 Ry     beta= 0.30
     Davidson diagonalization with overlap
     ethr =  1.76E-06,  avg # of iterations =  4.9

     total cpu time spent up to now is       37.4 secs

     total energy              =     -57.25174028 Ry
     estimated scf accuracy    <       0.00196003 Ry

     iteration #  9     ecut=    80.00 Ry     beta= 0.30
     Davidson diagonalization with overlap
     ethr =  1.76E-06,  avg # of iterations =  1.7

     total cpu time spent up to now is       37.5 secs

     total energy              =     -57.25170651 Ry
     estimated scf accuracy    <       0.00255405 Ry

     iteration # 10     ecut=    80.00 Ry     beta= 0.30
     Davidson diagonalization with overlap
     ethr =  1.76E-06,  avg # of iterations =  1.1

     total cpu time spent up to now is       37.7 secs

     total energy              =     -57.25138092 Ry
     estimated scf accuracy    <       0.00262039 Ry

     iteration # 11     ecut=    80.00 Ry     beta= 0.30
     Davidson diagonalization with overlap
     ethr =  1.76E-06,  avg # of iterations =  2.2

     total cpu time spent up to now is       37.9 secs

     total energy              =     -57.25120501 Ry
     estimated scf accuracy    <       0.00158132 Ry

     iteration # 12     ecut=    80.00 Ry     beta= 0.30
     Davidson diagonalization with overlap
     ethr =  1.76E-06,  avg # of iterations =  3.4

     total cpu time spent up to now is       38.1 secs

     total energy              =     -57.25120945 Ry
     estimated scf accuracy    <       0.00048750 Ry

     iteration # 13     ecut=    80.00 Ry     beta= 0.30
     Davidson diagonalization with overlap
     ethr =  1.76E-06,  avg # of iterations =  2.1

     total cpu time spent up to now is       38.3 secs

     total energy              =     -57.25123352 Ry
     estimated scf accuracy    <       0.00015282 Ry

     iteration # 14     ecut=    80.00 Ry     beta= 0.30
     Davidson diagonalization with overlap
     ethr =  8.49E-07,  avg # of iterations =  1.6

     total cpu time spent up to now is       38.4 secs

     total energy              =     -57.25123087 Ry
     estimated scf accuracy    <       0.00009934 Ry

     iteration # 15     ecut=    80.00 Ry     beta= 0.30
     Davidson diagonalization with overlap
     ethr =  5.52E-07,  avg # of iterations =  2.4

     total cpu time spent up to now is       38.6 secs

     total energy              =     -57.25123581 Ry
[...]
        k(   17) = (   0.2549115   0.4415196   0.0000000), wk =   0.0833333
        k(   18) = (   0.2549115   0.5396351   0.0000000), wk =   0.1666667
        k(   19) = (   0.3398820   0.5886928   0.0000000), wk =   0.0277778

     Dense  grid:   111239 G-vectors     FFT dimensions: (  36,  36, 216)

     Estimated max dynamical RAM per process >       9.72 MB

     Estimated total dynamical RAM >     311.18 MB

     Initial potential from superposition of free atoms

     starting charge   15.99930, renormalised to   18.00000

     negative rho (up, down):  2.417E-06 0.000E+00
     Starting wfcs are   27 randomized atomic wfcs

     total cpu time spent up to now is       63.1 secs

     Self-consistent Calculation

     iteration #  1     ecut=    80.00 Ry     beta= 0.30
     Davidson diagonalization with overlap
     ethr =  1.00E-06,  avg # of iterations = 15.5

     negative rho (up, down):  1.350E-07 0.000E+00

     total cpu time spent up to now is       63.8 secs

     total energy              =     -56.91971863 Ry
     estimated scf accuracy    <       1.19751523 Ry

     iteration #  2     ecut=    80.00 Ry     beta= 0.30
     Davidson diagonalization with overlap
     ethr =  6.65E-03,  avg # of iterations =  3.5

     negative rho (up, down):  9.724E-08 0.000E+00

     total cpu time spent up to now is       64.0 secs

     total energy              =     -57.24600440 Ry
     estimated scf accuracy    <       0.19314301 Ry

     iteration #  3     ecut=    80.00 Ry     beta= 0.30
     Davidson diagonalization with overlap
     ethr =  1.07E-03,  avg # of iterations =  2.2

     negative rho (up, down):  2.888E-08 0.000E+00

     total cpu time spent up to now is       64.2 secs

     total energy              =     -57.19973395 Ry
     estimated scf accuracy    <       0.08947423 Ry

     iteration #  4     ecut=    80.00 Ry     beta= 0.30
     Davidson diagonalization with overlap
     ethr =  4.97E-04,  avg # of iterations =  6.2

     negative rho (up, down):  1.724E-08 0.000E+00

     total cpu time spent up to now is       64.5 secs

     total energy              =     -57.24242266 Ry
     estimated scf accuracy    <       0.33630884 Ry

     iteration #  5     ecut=    80.00 Ry     beta= 0.30
     Davidson diagonalization with overlap
     ethr =  4.97E-04,  avg # of iterations =  2.8

     total cpu time spent up to now is       64.7 secs

     total energy              =     -57.22498473 Ry
     estimated scf accuracy    <       0.11490043 Ry

     iteration #  6     ecut=    80.00 Ry     beta= 0.30
     Davidson diagonalization with overlap
     ethr =  4.97E-04,  avg # of iterations =  3.7

     total cpu time spent up to now is       64.9 secs

     total energy              =     -57.24755407 Ry
     estimated scf accuracy    <       0.00061205 Ry

     iteration #  7     ecut=    80.00 Ry     beta= 0.30
     Davidson diagonalization with overlap
     ethr =  3.40E-06,  avg # of iterations = 13.9

     total cpu time spent up to now is       65.5 secs

     total energy              =     -57.26856825 Ry
     estimated scf accuracy    <       0.11814791 Ry

     iteration #  8     ecut=    80.00 Ry     beta= 0.30
     Davidson diagonalization with overlap
     ethr =  3.40E-06,  avg # of iterations =  1.5

     total cpu time spent up to now is       65.7 secs

     total energy              =     -57.24586973 Ry
     estimated scf accuracy    <       0.12045389 Ry

     iteration #  9     ecut=    80.00 Ry     beta= 0.30
     Davidson diagonalization with overlap
     ethr =  3.40E-06,  avg # of iterations =  9.0

     total cpu time spent up to now is       66.1 secs

     total energy              =     -57.25181635 Ry
     estimated scf accuracy    <       0.01272482 Ry

     iteration # 10     ecut=    80.00 Ry     beta= 0.30
     Davidson diagonalization with overlap
     ethr =  3.40E-06,  avg # of iterations =  3.5

     total cpu time spent up to now is       66.3 secs

     total energy              =     -57.25065222 Ry
     estimated scf accuracy    <       0.00714400 Ry

     iteration # 11     ecut=    80.00 Ry     beta= 0.30
     Davidson diagonalization with overlap
     ethr =  3.40E-06,  avg # of iterations =  5.7

     total cpu time spent up to now is       66.6 secs

     total energy              =     -57.25098240 Ry
     estimated scf accuracy    <       0.00070543 Ry

     iteration # 12     ecut=    80.00 Ry     beta= 0.30
     Davidson diagonalization with overlap
     ethr =  3.40E-06,  avg # of iterations =  3.9

     total cpu time spent up to now is       66.8 secs

     total energy              =     -57.25121909 Ry
     estimated scf accuracy    <       0.00004554 Ry

     iteration # 13     ecut=    80.00 Ry     beta= 0.30
     Davidson diagonalization with overlap
     ethr =  2.53E-07,  avg # of iterations =  5.1

     total cpu time spent up to now is       67.1 secs

     total energy              =     -57.25123021 Ry
     estimated scf accuracy    <       0.00016179 Ry

     iteration # 14     ecut=    80.00 Ry     beta= 0.30
     Davidson diagonalization with overlap
     ethr =  2.53E-07,  avg # of iterations =  1.7

     total cpu time spent up to now is       67.3 secs

     total energy              =     -57.25119763 Ry
     estimated scf accuracy    <       0.00009757 Ry

     iteration # 15     ecut=    80.00 Ry     beta= 0.30
     Davidson diagonalization with overlap
     ethr =  2.53E-07,  avg # of iterations =  4.7

     total cpu time spent up to now is       67.5 secs

     total energy              =     -57.25122447 Ry
     estimated scf accuracy    <       0.00000774 Ry

     iteration # 16     ecut=    80.00 Ry     beta= 0.30
     Davidson diagonalization with overlap
     ethr =  4.30E-08,  avg # of iterations =  3.6

     total cpu time spent up to now is       67.7 secs

     total energy              =     -57.25122733 Ry
     estimated scf accuracy    <       0.00001665 Ry

     iteration # 17     ecut=    80.00 Ry     beta= 0.30
     Davidson diagonalization with overlap
     ethr =  4.30E-08,  avg # of iterations =  1.7

     total cpu time spent up to now is       67.9 secs

     total energy              =     -57.25122822 Ry
     estimated scf accuracy    <       0.00002483 Ry

     iteration # 18     ecut=    80.00 Ry     beta= 0.30
     Davidson diagonalization with overlap
     ethr =  4.30E-08,  avg # of iterations =  1.0

     total cpu time spent up to now is       68.0 secs

     total energy              =     -57.25122683 Ry
     estimated scf accuracy    <       0.00002876 Ry

     iteration # 19     ecut=    80.00 Ry     beta= 0.30
     Davidson diagonalization with overlap
     ethr =  4.30E-08,  avg # of iterations =  1.0

     total cpu time spent up to now is       68.2 secs

     total energy              =     -57.25123019 Ry
     estimated scf accuracy    <       0.00002665 Ry

     iteration # 20     ecut=    80.00 Ry     beta= 0.30
     Davidson diagonalization with overlap
     ethr =  4.30E-08,  avg # of iterations =  1.8

     total cpu time spent up to now is       68.3 secs

     total energy              =     -57.25122073 Ry
     estimated scf accuracy    <       0.00004741 Ry

     iteration # 21     ecut=    80.00 Ry     beta= 0.30
     Davidson diagonalization with overlap
     ethr =  4.30E-08,  avg # of iterations =  3.4

     total cpu time spent up to now is       68.5 secs

     total energy              =     -57.25121896 Ry
     estimated scf accuracy    <       0.00001290 Ry

     iteration # 22     ecut=    80.00 Ry     beta= 0.30
     Davidson diagonalization with overlap
     ethr =  4.30E-08,  avg # of iterations =  4.5

     total cpu time spent up to now is       68.8 secs

     total energy              =     -57.25122235 Ry
     estimated scf accuracy    <       0.00000038 Ry

     iteration # 23     ecut=    80.00 Ry     beta= 0.30
     Davidson diagonalization with overlap
     ethr =  2.09E-09,  avg # of iterations =  4.8

     total cpu time spent up to now is       69.0 secs

     total energy              =     -57.25122243 Ry
     estimated scf accuracy    <       0.00000038 Ry

     iteration # 24     ecut=    80.00 Ry     beta= 0.30
     Davidson diagonalization with overlap
     ethr =  2.09E-09,  avg # of iterations =  4.0

     total cpu time spent up to now is       69.3 secs

     total energy              =     -57.25122256 Ry
     estimated scf accuracy    <       0.00000004 Ry

     iteration # 25     ecut=    80.00 Ry     beta= 0.30
     Davidson diagonalization with overlap
     ethr =  2.34E-10,  avg # of iterations =  4.9

     total cpu time spent up to now is       69.5 secs

     total energy              =     -57.25122259 Ry
     estimated scf accuracy    <       0.00000024 Ry

     iteration # 26     ecut=    80.00 Ry     beta= 0.30
     Davidson diagonalization with overlap
     ethr =  2.34E-10,  avg # of iterations =  1.1

     total cpu time spent up to now is       69.7 secs

     total energy              =     -57.25122261 Ry
     estimated scf accuracy    <       0.00000026 Ry

     iteration # 27     ecut=    80.00 Ry     beta= 0.30
     Davidson diagonalization with overlap
     ethr =  2.34E-10,  avg # of iterations =  1.4

     total cpu time spent up to now is       69.8 secs

     total energy              =     -57.25122255 Ry
     estimated scf accuracy    <       0.00000034 Ry

     iteration # 28     ecut=    80.00 Ry     beta= 0.30
     Davidson diagonalization with overlap
     ethr =  2.34E-10,  avg # of iterations =  2.7

     total cpu time spent up to now is       70.0 secs

     total energy              =     -57.25122258 Ry
     estimated scf accuracy    <       0.00000017 Ry

     iteration # 29     ecut=    80.00 Ry     beta= 0.30
     Davidson diagonalization with overlap
     ethr =  2.34E-10,  avg # of iterations =  1.2

     total cpu time spent up to now is       70.2 secs

     total energy              =     -57.25122253 Ry
     estimated scf accuracy    <       0.00000024 Ry

     iteration # 30     ecut=    80.00 Ry     beta= 0.30
     Davidson diagonalization with overlap
     ethr =  2.34E-10,  avg # of iterations =  3.4

     total cpu time spent up to now is       70.4 secs

     total energy              =     -57.25122251 Ry
     estimated scf accuracy    <       0.00000005 Ry

     iteration # 31     ecut=    80.00 Ry     beta= 0.30
     Davidson diagonalization with overlap
     ethr =  2.34E-10,  avg # of iterations =  6.5

     total cpu time spent up to now is       70.7 secs

     total energy              =     -57.25122251 Ry
     estimated scf accuracy    <       0.00000027 Ry

     iteration # 32     ecut=    80.00 Ry     beta= 0.30
     Davidson diagonalization with overlap
     ethr =  2.34E-10,  avg # of iterations =  5.1

     total cpu time spent up to now is       71.0 secs

     total energy              =     -57.25122254 Ry
     estimated scf accuracy    <       0.00000001 Ry

     iteration # 33     ecut=    80.00 Ry     beta= 0.30
     Davidson diagonalization with overlap
     ethr =  5.72E-11,  avg # of iterations =  5.2

     total cpu time spent up to now is       71.2 secs

     total energy              =     -57.25122254 Ry
     estimated scf accuracy    <          2.4E-09 Ry

     iteration # 34     ecut=    80.00 Ry     beta= 0.30
     Davidson diagonalization with overlap
     ethr =  1.36E-11,  avg # of iterations =  4.4

     total cpu time spent up to now is       71.4 secs

     total energy              =     -57.25122254 Ry
     estimated scf accuracy    <          9.2E-09 Ry

     iteration # 35     ecut=    80.00 Ry     beta= 0.30
     Davidson diagonalization with overlap
     ethr =  1.36E-11,  avg # of iterations =  4.7

     total cpu time spent up to now is       71.7 secs

     total energy              =     -57.25122254 Ry
     estimated scf accuracy    <          6.2E-10 Ry

     iteration # 36     ecut=    80.00 Ry     beta= 0.30
     Davidson diagonalization with overlap
     ethr =  3.43E-12,  avg # of iterations =  3.3

     total cpu time spent up to now is       71.9 secs

     total energy              =     -57.25122254 Ry
     estimated scf accuracy    <          1.1E-09 Ry

     iteration # 37     ecut=    80.00 Ry     beta= 0.30
     Davidson diagonalization with overlap
     ethr =  3.43E-12,  avg # of iterations =  1.0

     total cpu time spent up to now is       72.0 secs

     total energy              =     -57.25122254 Ry
     estimated scf accuracy    <          7.8E-10 Ry

     iteration # 38     ecut=    80.00 Ry     beta= 0.30
     Davidson diagonalization with overlap
     ethr =  3.43E-12,  avg # of iterations =  1.0

     total cpu time spent up to now is       72.2 secs

     total energy              =     -57.25122254 Ry
     estimated scf accuracy    <          6.9E-10 Ry

     iteration # 39     ecut=    80.00 Ry     beta= 0.30
     Davidson diagonalization with overlap
     ethr =  3.43E-12,  avg # of iterations =  1.8

     total cpu time spent up to now is       72.4 secs

     total energy              =     -57.25122254 Ry
     estimated scf accuracy    <          2.1E-10 Ry

     iteration # 40     ecut=    80.00 Ry     beta= 0.30
     Davidson diagonalization with overlap
     ethr =  1.17E-12,  avg # of iterations =  5.0

     total cpu time spent up to now is       72.6 secs

     End of self-consistent calculation

          k = 0.0000 0.0000 0.0000 ( 13997 PWs)   bands (ev):

   -15.9469 -14.6605  -7.4543  -4.3158  -4.3158  -3.5225  -3.1114  -3.1114
    -1.8222

          k = 0.0000 0.0981 0.0000 ( 14003 PWs)   bands (ev):

   -15.8409 -14.6068  -7.3323  -4.5477  -4.1980  -3.9793  -3.2848  -2.8172
    -1.8607

          k = 0.0000 0.1962 0.0000 ( 13961 PWs)   bands (ev):

   -15.5374 -14.4535  -7.0253  -5.0838  -4.6403  -3.8687  -3.6932  -2.7379
    -2.0647

          k = 0.0000 0.2943 0.0000 ( 13951 PWs)   bands (ev):

   -15.0821 -14.2262  -6.8052  -5.5454  -5.3313  -4.1511  -3.4050  -3.0061
    -2.4876

          k = 0.0000 0.3925 0.0000 ( 13892 PWs)   bands (ev):

   -14.5621 -13.9726  -7.0664  -5.9877  -5.6512  -4.5366  -3.3286  -2.9389
    -2.7398

          k = 0.0000 0.4906 0.0000 ( 13848 PWs)   bands (ev):

   -14.1205 -13.7653  -7.4755  -6.4791  -5.7721  -4.7870  -3.5324  -2.6159
    -2.5489

          k =-0.0000-0.5887 0.0000 ( 13882 PWs)   bands (ev):

   -13.9407 -13.6838  -7.6539  -6.6634  -5.8596  -4.8733  -3.5976  -2.5067
    -2.3692

          k = 0.0850 0.1472 0.0000 ( 13979 PWs)   bands (ev):

   -15.6360 -14.5031  -7.1142  -4.9243  -4.4170  -3.9832  -3.6885  -2.6238
    -1.9817

          k = 0.0850 0.2453 0.0000 ( 13943 PWs)   bands (ev):

   -15.2556 -14.3116  -6.8195  -5.4052  -4.9785  -4.2713  -3.6414  -2.6606
    -2.3044

          k = 0.0850 0.3434 0.0000 ( 13924 PWs)   bands (ev):

   -14.7639 -14.0675  -6.8507  -5.6663  -5.5875  -4.6616  -3.3955  -2.9780
    -2.5729

          k = 0.0850 0.4415 0.0000 ( 13897 PWs)   bands (ev):

   -14.2736 -13.8301  -7.2203  -6.3048  -5.6414  -4.8410  -3.3329  -3.2909
    -2.4157

          k = 0.0850 0.5396 0.0000 ( 13867 PWs)   bands (ev):

   -13.9509 -13.6788  -7.5087  -6.6829  -5.7929  -4.9009  -3.5515  -3.1374
    -2.1645

          k = 0.1699 0.2943 0.0000 ( 13925 PWs)   bands (ev):

   -14.8359 -14.1005  -6.7475  -5.5355  -5.4071  -4.9353  -3.6358  -2.7033
    -2.5048

          k = 0.1699 0.3925 0.0000 ( 13915 PWs)   bands (ev):

   -14.3633 -13.8637  -6.9549  -6.1456  -5.4335  -5.0589  -3.9593  -3.0280
    -2.4167

          k = 0.1699 0.4906 0.0000 ( 13884 PWs)   bands (ev):

   -13.9709 -13.6688  -7.1717  -6.7169  -5.5814  -4.9795  -4.0667  -3.4195
    -2.1562

          k = 0.1699 0.5887 0.0000 ( 13880 PWs)   bands (ev):

   -13.8142 -13.5918  -7.2525  -6.9263  -5.7290  -4.9079  -4.0470  -3.6059
    -1.9747

          k = 0.2549 0.4415 0.0000 ( 13906 PWs)   bands (ev):

   -13.9807 -13.6638  -6.9710  -6.7317  -5.2973  -5.0273  -4.6913  -3.3356
    -2.1821

          k = 0.2549 0.5396 0.0000 ( 13890 PWs)   bands (ev):

   -13.7414 -13.5356  -7.0997  -6.8445  -5.5915  -4.9463  -4.8399  -3.6786
    -1.8643

          k = 0.3399 0.5887 0.0000 ( 13920 PWs)   bands (ev):

   -13.6561 -13.4828  -7.2519  -6.4260  -5.9109  -5.2640  -4.6989  -3.8591
    -1.6701

     highest occupied level (ev):    -1.6701

!    total energy              =     -57.25122254 Ry
     estimated scf accuracy    <          9.5E-11 Ry

     The total energy is the sum of the following terms:
     one-electron contribution =    -471.69997698 Ry
     hartree contribution      =     239.97730535 Ry
     xc contribution           =     -13.16611748 Ry
     ewald contribution        =     187.63756657 Ry

     convergence has been achieved in  40 iterations

     Forces acting on atoms (cartesian axes, Ry/au):

     atom    1 type  1   force =     0.00000000    0.00000000    0.00000000
     atom    2 type  2   force =     0.00000000   -0.00000000   -0.00001706
     atom    3 type  2   force =     0.00000000    0.00000000    0.00001706

     Total force =     0.000024     Total SCF correction =     0.000019
     SCF correction compared to forces is large: reduce conv_thr to get better values


     Computing stress (Cartesian axis) and pressure

          total   stress  (Ry/bohr**3)                   (kbar)     P=       -0.22
  -0.00000066  -0.00000000  -0.00000000           -0.10       -0.00       -0.00
  -0.00000000  -0.00000066   0.00000000           -0.00       -0.10        0.00
  -0.00000000   0.00000000  -0.00000308           -0.00        0.00       -0.45


     Writing output data file ./tmp/mos2.save/
 
     init_run     :      0.53s CPU      0.61s WALL (       2 calls)
     electrons    :     67.53s CPU     70.29s WALL (      10 calls)
     update_pot   :      0.48s CPU      0.49s WALL (       8 calls)
     forces       :      0.31s CPU      0.32s WALL (      10 calls)
     stress       :      0.65s CPU      0.66s WALL (      10 calls)

     Called by init_run:
     wfcinit      :      0.35s CPU      0.38s WALL (       2 calls)
     potinit      :      0.04s CPU      0.05s WALL (       2 calls)
     hinit0       :      0.09s CPU      0.12s WALL (       2 calls)

     Called by electrons:
     c_bands      :     59.40s CPU     61.79s WALL (     279 calls)
     sum_band     :      7.58s CPU      7.73s WALL (     279 calls)
     v_of_rho     :      0.19s CPU      0.19s WALL (     288 calls)
     mix_rho      :      0.28s CPU      0.29s WALL (     279 calls)

     Called by c_bands:
     init_us_2    :      0.91s CPU      0.96s WALL (   11020 calls)
     cegterg      :     57.07s CPU     58.19s WALL (    5301 calls)

     Called by *egterg:
     cdiaghg      :      2.25s CPU      2.32s WALL (   27218 calls)
     h_psi        :     49.94s CPU     50.94s WALL (   27427 calls)
     g_psi        :      0.10s CPU      0.10s WALL (   22088 calls)

     Called by h_psi:
     h_psi:calbec :      2.17s CPU      2.21s WALL (   27427 calls)
     vloc_psi     :     46.72s CPU     47.66s WALL (   27427 calls)
     add_vuspsi   :      0.91s CPU      0.93s WALL (   27427 calls)

     General routines
     calbec       :      2.23s CPU      2.28s WALL (   28377 calls)
     fft          :      0.32s CPU      0.34s WALL (     913 calls)
     ffts         :      0.08s CPU      0.08s WALL (     279 calls)
     fftw         :     51.46s CPU     52.49s WALL (  388567 calls)
 
     Parallel routines
     fft_scatt_xy :      4.30s CPU      4.38s WALL (  389759 calls)
     fft_scatt_yz :     24.83s CPU     25.33s WALL (  389759 calls)
 
     PWSCF        :   1m 9.66s CPU   1m12.87s WALL

 
   This run was terminated on:  23: 4:44  12Jun2026            

=------------------------------------------------------------------------------=
   JOB DONE.
=------------------------------------------------------------------------------=
