
     Program PWSCF v.6.7MaX starts on 12Jun2026 at  1:41:33 

     This program is part of the open-source Quantum ESPRESSO suite
     for quantum simulation of materials; please cite
         "P. Giannozzi et al., J. Phys.:Condens. Matter 21 395502 (2009);
         "P. Giannozzi et al., J. Phys.:Condens. Matter 29 465901 (2017);
          URL http://www.quantum-espresso.org", 
     in publications or presentations arising from this work. More details at
     http://www.quantum-espresso.org/quote

     Parallel version (MPI), running on    32 processors

     MPI processes distributed on     1 nodes
     R & G space division:  proc/nbgrp/npool/nimage =      32
     Waiting for input...
     Reading input from standard input
Warning: card K_POINTS(AUTOMATIC) ignored
Warning: card 9 9 1 0 0 0 ignored

     Current dimensions of program PWSCF are:
     Max number of different atomic species (ntypx) = 10
     Max number of k-points (npk) =  40000
     Max angular momentum in pseudopotentials (lmaxx) =  3
     file Mo.pbe-spn-rrkjus_psl.1.0.0.UPF: wavefunction(s)  4S renormalized

     gamma-point specific algorithms are used

     Subspace diagonalization in iterative solution of the eigenvalue problem:
     a serial algorithm will be used

 
     Parallelization info
     --------------------
     sticks:   dense  smooth     PW     G-vecs:    dense   smooth      PW
     Min          30      14      2                 3762     1298     126
     Max          32      16      4                 3808     1360     184
     Sum        1015     499    121               121303    42913    5379
 


     bravais-lattice index     =            4
     lattice parameter (alat)  =       6.0471  a.u.
     unit-cell volume          =     897.6736 (a.u.)^3
     number of atoms/cell      =            3
     number of atomic types    =            2
     number of electrons       =        26.00
     number of Kohn-Sham states=           17
     kinetic-energy cutoff     =      50.0000  Ry
     charge density cutoff     =     400.0000  Ry
     scf convergence threshold =      1.0E-08
     mixing beta               =       0.3000
     number of iterations used =            8  plain     mixing
     energy convergence thresh.=      1.0E-05
     force convergence thresh. =      1.0E-04
     press convergence thresh. =      5.0E-02
     Exchange-correlation= PBE
                           (   1   4   3   4   0   0   0)
     nstep                     =           50


     celldm(1)=   6.047124  celldm(2)=   0.000000  celldm(3)=   4.687500
     celldm(4)=   0.000000  celldm(5)=   0.000000  celldm(6)=   0.000000

     crystal axes: (cart. coord. in units of alat)
               a(1) = (   1.000000   0.000000   0.000000 )  
               a(2) = (  -0.500000   0.866025   0.000000 )  
               a(3) = (   0.000000   0.000000   4.687500 )  

     reciprocal axes: (cart. coord. in units 2 pi/alat)
               b(1) = (  1.000000  0.577350  0.000000 )  
               b(2) = (  0.000000  1.154701  0.000000 )  
               b(3) = (  0.000000  0.000000  0.213333 )  


     PseudoPot. # 1 for Mo read from file:
     /public3/home/a2s002871/MoS2/pseudo/Mo.pbe-spn-rrkjus_psl.1.0.0.UPF
     MD5 check sum: 03f09b12e49601d1a456a78ce8b2d514
     Pseudo is Ultrasoft + core correction, Zval = 14.0
     Generated using &quot;atomic&quot; code by A. Dal Corso  v.6.3
     Using radial grid of 1229 points,  6 beta functions with: 
                l(1) =   0
                l(2) =   0
                l(3) =   1
                l(4) =   1
                l(5) =   2
                l(6) =   2
     Q(r) pseudized with 0 coefficients 


     PseudoPot. # 2 for S  read from file:
     /public3/home/a2s002871/MoS2/pseudo/S.pbe-n-rrkjus_psl.1.0.0.UPF
     MD5 check sum: 9d0fe39aa2a799ea84730884c9b010f4
     Pseudo is Ultrasoft + core correction, Zval =  6.0
     Generated using &quot;atomic&quot; code by A. Dal Corso  v.6.3
     Using radial grid of 1151 points,  6 beta functions with: 
                l(1) =   0
                l(2) =   0
                l(3) =   1
                l(4) =   1
                l(5) =   2
                l(6) =   2
     Q(r) pseudized with 0 coefficients 


     atomic species   valence    mass     pseudopotential
        Mo            14.00    95.94000     Mo( 1.00)
        S              6.00    32.06000     S ( 1.00)

     12 Sym. Ops. (no inversion) found



   Cartesian axes

     site n.     atom                  positions (alat units)
         1           Mo  tau(   1) = (  -0.0000000   0.5773503   2.3437500  )
         2           S   tau(   2) = (   0.5000000   0.2886751   2.7404053  )
         3           S   tau(   3) = (   0.5000000   0.2886751   1.9470947  )

     number of k points=     1  Gaussian smearing, width (Ry)=  0.0100
                       cart. coord. in units 2pi/alat
        k(    1) = (   0.0000000   0.0000000   0.0000000), wk =   2.0000000

     Dense  grid:    60652 G-vectors     FFT dimensions: (  40,  40, 192)

     Smooth grid:    21457 G-vectors     FFT dimensions: (  27,  27, 128)

     Estimated max dynamical RAM per process >      13.84 MB

     Estimated total dynamical RAM >     442.77 MB

     Initial potential from superposition of free atoms

     starting charge   25.99905, renormalised to   26.00000

     negative rho (up, down):  2.925E-05 0.000E+00
     Starting wfcs are   18 randomized atomic wfcs

     total cpu time spent up to now is        0.6 secs

     Self-consistent Calculation

     iteration #  1     ecut=    50.00 Ry     beta= 0.30
     Davidson diagonalization with overlap
     ethr =  1.00E-02,  avg # of iterations =  3.0

     negative rho (up, down):  9.970E-06 0.000E+00

     total cpu time spent up to now is        0.7 secs

     total energy              =    -180.83650764 Ry
     estimated scf accuracy    <       0.86980025 Ry

     iteration #  2     ecut=    50.00 Ry     beta= 0.30
     Davidson diagonalization with overlap
     ethr =  3.35E-03,  avg # of iterations =  3.0

     negative rho (up, down):  3.925E-06 0.000E+00

     total cpu time spent up to now is        0.7 secs

     total energy              =    -180.99186204 Ry
     estimated scf accuracy    <       0.35816450 Ry

     iteration #  3     ecut=    50.00 Ry     beta= 0.30
     Davidson diagonalization with overlap
     ethr =  1.38E-03,  avg # of iterations =  2.0

     negative rho (up, down):  6.920E-07 0.000E+00

     total cpu time spent up to now is        0.7 secs

     total energy              =    -181.00234477 Ry
     estimated scf accuracy    <       0.07015719 Ry

     iteration #  4     ecut=    50.00 Ry     beta= 0.30
     Davidson diagonalization with overlap
     ethr =  2.70E-04,  avg # of iterations =  3.0

     negative rho (up, down):  1.173E-06 0.000E+00

     total cpu time spent up to now is        0.8 secs

     total energy              =    -181.01050593 Ry
     estimated scf accuracy    <       0.02250759 Ry

     iteration #  5     ecut=    50.00 Ry     beta= 0.30
     Davidson diagonalization with overlap
     ethr =  8.66E-05,  avg # of iterations =  2.0

     negative rho (up, down):  3.654E-06 0.000E+00

     total cpu time spent up to now is        0.8 secs

     total energy              =    -181.01350544 Ry
     estimated scf accuracy    <       0.00161486 Ry

     iteration #  6     ecut=    50.00 Ry     beta= 0.30
     Davidson diagonalization with overlap
     ethr =  6.21E-06,  avg # of iterations =  2.0

     negative rho (up, down):  4.331E-06 0.000E+00

     total cpu time spent up to now is        0.8 secs

     total energy              =    -181.01379558 Ry
     estimated scf accuracy    <       0.00047031 Ry

     iteration #  7     ecut=    50.00 Ry     beta= 0.30
     Davidson diagonalization with overlap
     ethr =  1.81E-06,  avg # of iterations =  2.0

     negative rho (up, down):  4.865E-06 0.000E+00

     total cpu time spent up to now is        0.8 secs

     total energy              =    -181.01387066 Ry
     estimated scf accuracy    <       0.00015385 Ry

     iteration #  8     ecut=    50.00 Ry     beta= 0.30
     Davidson diagonalization with overlap
     ethr =  5.92E-07,  avg # of iterations =  2.0

     negative rho (up, down):  6.615E-06 0.000E+00

     total cpu time spent up to now is        0.8 secs

     total energy              =    -181.01388733 Ry
     estimated scf accuracy    <       0.00003226 Ry

     iteration #  9     ecut=    50.00 Ry     beta= 0.30
     Davidson diagonalization with overlap
     ethr =  1.24E-07,  avg # of iterations =  3.0

     negative rho (up, down):  6.853E-06 0.000E+00

     total cpu time spent up to now is        0.9 secs

     total energy              =    -181.01389346 Ry
     estimated scf accuracy    <       0.00000493 Ry

     iteration # 10     ecut=    50.00 Ry     beta= 0.30
     Davidson diagonalization with overlap
     ethr =  1.90E-08,  avg # of iterations =  3.0

     negative rho (up, down):  6.605E-06 0.000E+00

     total cpu time spent up to now is        0.9 secs

     total energy              =    -181.01389311 Ry
     estimated scf accuracy    <       0.00000424 Ry

     iteration # 11     ecut=    50.00 Ry     beta= 0.30
     Davidson diagonalization with overlap
     ethr =  1.63E-08,  avg # of iterations =  2.0

     negative rho (up, down):  6.590E-06 0.000E+00

     total cpu time spent up to now is        0.9 secs

     total energy              =    -181.01389398 Ry
     estimated scf accuracy    <       0.00000015 Ry

     iteration # 12     ecut=    50.00 Ry     beta= 0.30
     Davidson diagonalization with overlap
     ethr =  5.76E-10,  avg # of iterations =  4.0

     negative rho (up, down):  6.621E-06 0.000E+00

     total cpu time spent up to now is        0.9 secs

     total energy              =    -181.01389390 Ry
     estimated scf accuracy    <       0.00000028 Ry

     iteration # 13     ecut=    50.00 Ry     beta= 0.30
     Davidson diagonalization with overlap
     ethr =  5.76E-10,  avg # of iterations =  2.0

     negative rho (up, down):  6.604E-06 0.000E+00

     total cpu time spent up to now is        1.0 secs

     total energy              =    -181.01389397 Ry
     estimated scf accuracy    <       0.00000002 Ry

     iteration # 14     ecut=    50.00 Ry     beta= 0.30
     Davidson diagonalization with overlap
     ethr =  7.80E-11,  avg # of iterations =  2.0

     negative rho (up, down):  6.583E-06 0.000E+00

     total cpu time spent up to now is        1.0 secs

     End of self-consistent calculation

          k = 0.0000 0.0000 0.0000 (  2690 PWs)   bands (ev):

   -59.8342 -34.2428 -34.2428 -33.9348 -16.1464 -13.6018  -7.1207  -5.1028
    -5.1028  -3.2442  -3.2442  -1.2625   1.1857   2.1038   2.1038   3.2103
     3.2103

     the Fermi energy is     1.6380 ev

!    total energy              =    -181.01389398 Ry
     estimated scf accuracy    <          4.0E-10 Ry
     smearing contrib. (-TS)   =      -0.00000018 Ry
     internal energy E=F+TS    =    -181.01389380 Ry

     The total energy is F=E-TS. E is the sum of the following terms:
     one-electron contribution =    -774.69447015 Ry
     hartree contribution      =     388.53235584 Ry
     xc contribution           =     -30.31156384 Ry
     ewald contribution        =     235.45978434 Ry

     convergence has been achieved in  14 iterations

     negative rho (up, down):  6.583E-06 0.000E+00

     Forces acting on atoms (cartesian axes, Ry/au):

     atom    1 type  1   force =     0.00000000   -0.00000000    0.00000000
     atom    2 type  2   force =     0.00000000   -0.00000000    0.16311673
     atom    3 type  2   force =     0.00000000    0.00000000   -0.16311673

     Total force =     0.230682     Total SCF correction =     0.000079


     Computing stress (Cartesian axis) and pressure


     negative rho (up, down):  6.583E-06 0.000E+00
          total   stress  (Ry/bohr**3)                   (kbar)     P=      135.66
   0.00095337   0.00000000  -0.00000000          140.25        0.00       -0.00
   0.00000000   0.00095337  -0.00000000            0.00      140.25       -0.00
   0.00000000   0.00000000   0.00085993            0.00        0.00      126.50


     BFGS Geometry Optimization
     Energy error            =      0.0E+00
     Gradient error          =      1.6E-01
     Cell gradient error     =      9.5E-04


     number of scf cycles    =   1
     number of bfgs steps    =   0

     enthalpy new            =    -181.0138939819 Ry

     new trust radius        =       0.1631167312 bohr
     new conv_thr            =       0.0000000100 Ry

     new unit-cell volume =    940.97413 a.u.^3 (   139.43798 Ang^3 )
     density =      1.90612 g/cm^3

CELL_PARAMETERS (alat=  6.04712360)
   1.023834165   0.000000000   0.000000000
  -0.511917082   0.886666396   0.000000000
   0.000000000   0.000000000   4.687500000

ATOMIC_POSITIONS (crystal)
Mo            0.3333333330        0.6666666670        0.5000000000
S             0.6666666670        0.3333333330        0.5903742995
S             0.6666666670        0.3333333330        0.4096257005



     Writing output data file ./tmp/MoS2.save/
     NEW-OLD atomic charge density approx. for the potential

     negative rho (up, down):  5.092E-05 0.000E+00
     extrapolated charge   27.19639, renormalised to   26.00000

     total cpu time spent up to now is        1.3 secs

     Self-consistent Calculation

     iteration #  1     ecut=    50.00 Ry     beta= 0.30
     Davidson diagonalization with overlap
     ethr =  1.00E-06,  avg # of iterations = 17.0

     total cpu time spent up to now is        1.3 secs

     total energy              =     -94.97631194 Ry
     estimated scf accuracy    <     155.11175934 Ry

     iteration #  2     ecut=    50.00 Ry     beta= 0.30
     Davidson diagonalization with overlap
     ethr =  1.00E-02,  avg # of iterations = 11.0

     total cpu time spent up to now is        1.4 secs

     total energy              =    -188.49289024 Ry
     estimated scf accuracy    <      47.13686728 Ry

     iteration #  3     ecut=    50.00 Ry     beta= 0.30
     Davidson diagonalization with overlap
     ethr =  1.00E-02,  avg # of iterations =  3.0

     total cpu time spent up to now is        1.4 secs

     total energy              =    -185.22105035 Ry
     estimated scf accuracy    <      16.63445502 Ry

     iteration #  4     ecut=    50.00 Ry     beta= 0.30
     Davidson diagonalization with overlap
     ethr =  1.00E-02,  avg # of iterations =  3.0

     total cpu time spent up to now is        1.4 secs

     total energy              =    -182.93862201 Ry
     estimated scf accuracy    <       8.13820508 Ry

     iteration #  5     ecut=    50.00 Ry     beta= 0.30
     Davidson diagonalization with overlap
     ethr =  1.00E-02,  avg # of iterations =  2.0

     total cpu time spent up to now is        1.4 secs

     total energy              =    -182.62197619 Ry
     estimated scf accuracy    <       4.17110718 Ry

     iteration #  6     ecut=    50.00 Ry     beta= 0.30
     Davidson diagonalization with overlap
     ethr =  1.00E-02,  avg # of iterations =  1.0

     total cpu time spent up to now is        1.5 secs

     total energy              =    -181.91630742 Ry
     estimated scf accuracy    <       3.22917047 Ry

     iteration #  7     ecut=    50.00 Ry     beta= 0.30
     Davidson diagonalization with overlap
     ethr =  1.00E-02,  avg # of iterations =  1.0

     total cpu time spent up to now is        1.5 secs

     total energy              =    -181.14349780 Ry
     estimated scf accuracy    <       2.54944433 Ry

     iteration #  8     ecut=    50.00 Ry     beta= 0.30
     Davidson diagonalization with overlap
     ethr =  9.81E-03,  avg # of iterations =  1.0

     total cpu time spent up to now is        1.5 secs

     total energy              =    -180.71621950 Ry
     estimated scf accuracy    <       1.35151932 Ry

     iteration #  9     ecut=    50.00 Ry     beta= 0.30
     Davidson diagonalization with overlap
     ethr =  5.20E-03,  avg # of iterations =  5.0

     total cpu time spent up to now is        1.5 secs

     total energy              =    -181.63002308 Ry
     estimated scf accuracy    <       0.69009028 Ry

     iteration # 10     ecut=    50.00 Ry     beta= 0.30
     Davidson diagonalization with overlap
     ethr =  2.65E-03,  avg # of iterations =  1.0

     total cpu time spent up to now is        1.6 secs

     total energy              =    -181.23254956 Ry
     estimated scf accuracy    <       0.89890463 Ry

     iteration # 11     ecut=    50.00 Ry     beta= 0.30
     Davidson diagonalization with overlap
     ethr =  2.65E-03,  avg # of iterations =  8.0

     total cpu time spent up to now is        1.6 secs

     total energy              =    -178.61525669 Ry
     estimated scf accuracy    <       9.86302797 Ry

     iteration # 12     ecut=    50.00 Ry     beta= 0.30
     Davidson diagonalization with overlap
     ethr =  2.65E-03,  avg # of iterations =  8.0

     total cpu time spent up to now is        1.6 secs

     total energy              =    -181.43562852 Ry
     estimated scf accuracy    <       1.08922462 Ry

     iteration # 13     ecut=    50.00 Ry     beta= 0.30
     Davidson diagonalization with overlap
     ethr =  2.65E-03,  avg # of iterations =  1.0

     total cpu time spent up to now is        1.6 secs

     total energy              =    -181.74172957 Ry
     estimated scf accuracy    <       0.91419431 Ry

     iteration # 14     ecut=    50.00 Ry     beta= 0.30
     Davidson diagonalization with overlap
     ethr =  2.65E-03,  avg # of iterations =  7.0

     total cpu time spent up to now is        1.7 secs

     total energy              =    -181.17920027 Ry
     estimated scf accuracy    <       1.14749329 Ry

     iteration # 15     ecut=    50.00 Ry     beta= 0.30
     Davidson diagonalization with overlap
     ethr =  2.65E-03,  avg # of iterations =  2.0

     total cpu time spent up to now is        1.7 secs

     total energy              =    -181.19821362 Ry
     estimated scf accuracy    <       0.31573672 Ry

     iteration # 16     ecut=    50.00 Ry     beta= 0.30
     Davidson diagonalization with overlap
     ethr =  1.21E-03,  avg # of iterations =  6.0

     total cpu time spent up to now is        1.7 secs

     total energy              =    -181.40020567 Ry
     estimated scf accuracy    <       0.71594569 Ry

     iteration # 17     ecut=    50.00 Ry     beta= 0.30
     Davidson diagonalization with overlap
     ethr =  1.21E-03,  avg # of iterations =  2.0

     total cpu time spent up to now is        1.8 secs

     total energy              =    -181.37164109 Ry
     estimated scf accuracy    <       0.58023398 Ry

     iteration # 18     ecut=    50.00 Ry     beta= 0.30
     Davidson diagonalization with overlap
     ethr =  1.21E-03,  avg # of iterations =  1.0

     total cpu time spent up to now is        1.8 secs

     total energy              =    -181.33408954 Ry
     estimated scf accuracy    <       0.56185530 Ry

     iteration # 19     ecut=    50.00 Ry     beta= 0.30
     Davidson diagonalization with overlap
     ethr =  1.21E-03,  avg # of iterations =  1.0

     total cpu time spent up to now is        1.8 secs

     total energy              =    -181.32562096 Ry
     estimated scf accuracy    <       0.47180386 Ry

     iteration # 20     ecut=    50.00 Ry     beta= 0.30
     Davidson diagonalization with overlap
     ethr =  1.21E-03,  avg # of iterations =  1.0

     total cpu time spent up to now is        1.8 secs

     total energy              =    -180.99489783 Ry
     estimated scf accuracy    <       0.46235899 Ry

     iteration # 21     ecut=    50.00 Ry     beta= 0.30
     Davidson diagonalization with overlap
     ethr =  1.21E-03,  avg # of iterations =  3.0

     total cpu time spent up to now is        1.8 secs

     total energy              =    -181.08010207 Ry
     estimated scf accuracy    <       0.06981570 Ry

     iteration # 22     ecut=    50.00 Ry     beta= 0.30
     Davidson diagonalization with overlap
     ethr =  2.69E-04,  avg # of iterations =  1.0

     total cpu time spent up to now is        1.9 secs

     total energy              =    -181.07772859 Ry
     estimated scf accuracy    <       0.03119790 Ry

     iteration # 23     ecut=    50.00 Ry     beta= 0.30
     Davidson diagonalization with overlap
     ethr =  1.20E-04,  avg # of iterations =  2.0

     total cpu time spent up to now is        1.9 secs

     total energy              =    -181.07907996 Ry
     estimated scf accuracy    <       0.00575277 Ry

     iteration # 24     ecut=    50.00 Ry     beta= 0.30
     Davidson diagonalization with overlap
     ethr =  2.21E-05,  avg # of iterations =  2.0

     negative rho (up, down):  3.413E-04 0.000E+00

     total cpu time spent up to now is        1.9 secs

     total energy              =    -181.07828594 Ry
     estimated scf accuracy    <       0.00408040 Ry

     iteration # 25     ecut=    50.00 Ry     beta= 0.30
     Davidson diagonalization with overlap
     ethr =  1.57E-05,  avg # of iterations =  2.0

     total cpu time spent up to now is        1.9 secs

     total energy              =    -181.07848776 Ry
     estimated scf accuracy    <       0.00062479 Ry

     iteration # 26     ecut=    50.00 Ry     beta= 0.30
     Davidson diagonalization with overlap
     ethr =  2.40E-06,  avg # of iterations =  3.0

     negative rho (up, down):  8.745E-06 0.000E+00

     total cpu time spent up to now is        2.0 secs

     total energy              =    -181.07861971 Ry
     estimated scf accuracy    <       0.00003662 Ry

     iteration # 27     ecut=    50.00 Ry     beta= 0.30
     Davidson diagonalization with overlap
     ethr =  1.41E-07,  avg # of iterations =  2.0

     negative rho (up, down):  5.493E-05 0.000E+00

     total cpu time spent up to now is        2.0 secs

     total energy              =    -181.07862502 Ry
     estimated scf accuracy    <       0.00000829 Ry

     iteration # 28     ecut=    50.00 Ry     beta= 0.30
     Davidson diagonalization with overlap
     ethr =  3.19E-08,  avg # of iterations =  4.0

     negative rho (up, down):  5.246E-05 0.000E+00

     total cpu time spent up to now is        2.0 secs

     total energy              =    -181.07862584 Ry
     estimated scf accuracy    <       0.00000273 Ry

     iteration # 29     ecut=    50.00 Ry     beta= 0.30
     Davidson diagonalization with overlap
     ethr =  1.05E-08,  avg # of iterations =  3.0

     negative rho (up, down):  3.377E-05 0.000E+00

     total cpu time spent up to now is        2.0 secs

     total energy              =    -181.07862595 Ry
     estimated scf accuracy    <       0.00000238 Ry

     iteration # 30     ecut=    50.00 Ry     beta= 0.30
     Davidson diagonalization with overlap
     ethr =  9.14E-09,  avg # of iterations =  3.0

     negative rho (up, down):  4.960E-05 0.000E+00

     total cpu time spent up to now is        2.1 secs

     total energy              =    -181.07862647 Ry
     estimated scf accuracy    <       0.00000071 Ry

     iteration # 31     ecut=    50.00 Ry     beta= 0.30
     Davidson diagonalization with overlap
     ethr =  2.73E-09,  avg # of iterations =  2.0

     negative rho (up, down):  4.489E-05 0.000E+00

     total cpu time spent up to now is        2.1 secs

     total energy              =    -181.07862652 Ry
     estimated scf accuracy    <       0.00000004 Ry

     iteration # 32     ecut=    50.00 Ry     beta= 0.30
     Davidson diagonalization with overlap
     ethr =  1.50E-10,  avg # of iterations =  4.0

     negative rho (up, down):  4.516E-05 0.000E+00

     total cpu time spent up to now is        2.1 secs

     total energy              =    -181.07862653 Ry
     estimated scf accuracy    <       0.00000004 Ry

     iteration # 33     ecut=    50.00 Ry     beta= 0.30
     Davidson diagonalization with overlap
     ethr =  1.50E-10,  avg # of iterations =  3.0

     negative rho (up, down):  4.486E-05 0.000E+00

     total cpu time spent up to now is        2.1 secs

     End of self-consistent calculation

          k = 0.0000 0.0000 0.0000 (  2690 PWs)   bands (ev):

   -59.9574 -34.2947 -34.2946 -33.9503 -15.4045 -13.4664  -6.4464  -4.3396
    -4.3396  -2.8576  -2.8576  -1.5098   0.9060   2.0603   2.0603   2.7569
     2.7569

     the Fermi energy is     1.4779 ev

!    total energy              =    -181.07862654 Ry
     estimated scf accuracy    <          4.8E-09 Ry
     smearing contrib. (-TS)   =      -0.00000000 Ry
     internal energy E=F+TS    =    -181.07862654 Ry

     The total energy is F=E-TS. E is the sum of the following terms:
     one-electron contribution =    -723.69901541 Ry
     hartree contribution      =     363.08253374 Ry
     xc contribution           =     -30.04628247 Ry
     ewald contribution        =     209.58413760 Ry

     convergence has been achieved in  33 iterations

     negative rho (up, down):  4.486E-05 0.000E+00

     Forces acting on atoms (cartesian axes, Ry/au):

     atom    1 type  1   force =     0.00000000    0.00000000    0.00000000
     atom    2 type  2   force =     0.00000000    0.00000000    0.04269044
     atom    3 type  2   force =     0.00000000   -0.00000000   -0.04269044

     Total force =     0.060373     Total SCF correction =     0.000127


     Computing stress (Cartesian axis) and pressure


     negative rho (up, down):  4.486E-05 0.000E+00
          total   stress  (Ry/bohr**3)                   (kbar)     P=       66.65
   0.00056868  -0.00000000   0.00000000           83.66       -0.00        0.00
  -0.00000000   0.00056868   0.00000000           -0.00       83.66        0.00
   0.00000000   0.00000000   0.00022178            0.00        0.00       32.63

     Energy error            =      6.5E-02
     Gradient error          =      4.3E-02
     Cell gradient error     =      5.7E-04


     number of scf cycles    =   2
     number of bfgs steps    =   1

     enthalpy old            =    -181.0138939819 Ry
     enthalpy new            =    -181.0786265437 Ry

     CASE: enthalpy_new < enthalpy_old

     new trust radius        =       0.1610367387 bohr
     new conv_thr            =       0.0000000100 Ry

     new unit-cell volume =    991.02096 a.u.^3 (   146.85415 Ang^3 )
     density =      1.80986 g/cm^3

CELL_PARAMETERS (alat=  6.04712360)
   1.050708378  -0.000000000   0.000000000
  -0.525354189   0.909940147   0.000000000
   0.000000000   0.000000000   4.687500000

ATOMIC_POSITIONS (crystal)
Mo            0.3333333330        0.6666666670        0.5000000000
S             0.6666666670        0.3333333330        0.5934405996
S             0.6666666670        0.3333333330        0.4065594004



     Writing output data file ./tmp/MoS2.save/
     NEW-OLD atomic charge density approx. for the potential

     negative rho (up, down):  1.158E-04 0.000E+00
     extrapolated charge   27.31296, renormalised to   26.00000

     total cpu time spent up to now is        2.4 secs

     Self-consistent Calculation

     iteration #  1     ecut=    50.00 Ry     beta= 0.30
     Davidson diagonalization with overlap
     c_bands:  1 eigenvalues not converged
     ethr =  1.00E-06,  avg # of iterations = 20.0

     total cpu time spent up to now is        2.4 secs

     total energy              =     -96.48411194 Ry
     estimated scf accuracy    <     152.13451377 Ry

     iteration #  2     ecut=    50.00 Ry     beta= 0.30
     Davidson diagonalization with overlap
     ethr =  1.00E-02,  avg # of iterations = 10.0

     total cpu time spent up to now is        2.5 secs

     total energy              =    -187.36443917 Ry
     estimated scf accuracy    <      37.63314314 Ry

     iteration #  3     ecut=    50.00 Ry     beta= 0.30
     Davidson diagonalization with overlap
     ethr =  1.00E-02,  avg # of iterations =  3.0

     total cpu time spent up to now is        2.5 secs

     total energy              =    -180.34331783 Ry
     estimated scf accuracy    <      16.74667928 Ry

     iteration #  4     ecut=    50.00 Ry     beta= 0.30
     Davidson diagonalization with overlap
     ethr =  1.00E-02,  avg # of iterations =  3.0

     total cpu time spent up to now is        2.5 secs

     total energy              =    -182.59925237 Ry
     estimated scf accuracy    <       3.94089478 Ry

     iteration #  5     ecut=    50.00 Ry     beta= 0.30
     Davidson diagonalization with overlap
     ethr =  1.00E-02,  avg # of iterations =  1.0

     total cpu time spent up to now is        2.6 secs

     total energy              =    -182.04313414 Ry
     estimated scf accuracy    <       4.10739578 Ry

     iteration #  6     ecut=    50.00 Ry     beta= 0.30
     Davidson diagonalization with overlap
     ethr =  1.00E-02,  avg # of iterations =  1.0

     total cpu time spent up to now is        2.6 secs

     total energy              =    -180.22710641 Ry
     estimated scf accuracy    <       3.51691777 Ry

     iteration #  7     ecut=    50.00 Ry     beta= 0.30
     Davidson diagonalization with overlap
     ethr =  1.00E-02,  avg # of iterations =  2.0

     total cpu time spent up to now is        2.6 secs

     total energy              =    -180.19416477 Ry
     estimated scf accuracy    <       1.27094144 Ry

     iteration #  8     ecut=    50.00 Ry     beta= 0.30
     Davidson diagonalization with overlap
     ethr =  4.89E-03,  avg # of iterations =  1.0

     total cpu time spent up to now is        2.6 secs

     total energy              =    -179.77700188 Ry
     estimated scf accuracy    <       1.12176480 Ry

     iteration #  9     ecut=    50.00 Ry     beta= 0.30
     Davidson diagonalization with overlap
     ethr =  4.31E-03,  avg # of iterations =  1.0

     total cpu time spent up to now is        2.7 secs

     total energy              =    -179.43105669 Ry
     estimated scf accuracy    <       0.57498752 Ry

     iteration # 10     ecut=    50.00 Ry     beta= 0.30
     Davidson diagonalization with overlap
     ethr =  2.21E-03,  avg # of iterations = 11.0

     total cpu time spent up to now is        2.7 secs

     total energy              =    -180.52575069 Ry
     estimated scf accuracy    <       0.53760040 Ry

     iteration # 11     ecut=    50.00 Ry     beta= 0.30
     Davidson diagonalization with overlap
     ethr =  2.07E-03,  avg # of iterations = 14.0

     total cpu time spent up to now is        2.7 secs

     total energy              =    -181.35076110 Ry
     estimated scf accuracy    <       0.80977052 Ry

     iteration # 12     ecut=    50.00 Ry     beta= 0.30
     Davidson diagonalization with overlap
     ethr =  2.07E-03,  avg # of iterations =  1.0

     total cpu time spent up to now is        2.7 secs

     total energy              =    -181.37004258 Ry
     estimated scf accuracy    <       1.22423401 Ry

     iteration # 13     ecut=    50.00 Ry     beta= 0.30
     Davidson diagonalization with overlap
     ethr =  2.07E-03,  avg # of iterations =  1.0

     total cpu time spent up to now is        2.8 secs

     total energy              =    -181.32147108 Ry
     estimated scf accuracy    <       1.28817429 Ry

     iteration # 14     ecut=    50.00 Ry     beta= 0.30
     Davidson diagonalization with overlap
     ethr =  2.07E-03,  avg # of iterations =  1.0

     total cpu time spent up to now is        2.8 secs

     total energy              =    -181.32498080 Ry
     estimated scf accuracy    <       1.04449457 Ry

     iteration # 15     ecut=    50.00 Ry     beta= 0.30
     Davidson diagonalization with overlap
     ethr =  2.07E-03,  avg # of iterations =  1.0

     total cpu time spent up to now is        2.8 secs

     total energy              =    -181.33625793 Ry
     estimated scf accuracy    <       1.00622933 Ry

     iteration # 16     ecut=    50.00 Ry     beta= 0.30
     Davidson diagonalization with overlap
     ethr =  2.07E-03,  avg # of iterations =  1.0

     negative rho (up, down):  1.888E-02 0.000E+00

     total cpu time spent up to now is        2.8 secs

     total energy              =    -181.46027340 Ry
     estimated scf accuracy    <       1.04668600 Ry

     iteration # 17     ecut=    50.00 Ry     beta= 0.30
     Davidson diagonalization with overlap
     ethr =  2.07E-03,  avg # of iterations =  1.0

     total cpu time spent up to now is        2.8 secs

     total energy              =    -180.96307866 Ry
     estimated scf accuracy    <       1.57298494 Ry

     iteration # 18     ecut=    50.00 Ry     beta= 0.30
     Davidson diagonalization with overlap
     ethr =  2.07E-03,  avg # of iterations =  2.0

     total cpu time spent up to now is        2.9 secs

     total energy              =    -181.10580593 Ry
     estimated scf accuracy    <       0.12038622 Ry

     iteration # 19     ecut=    50.00 Ry     beta= 0.30
     Davidson diagonalization with overlap
     ethr =  4.63E-04,  avg # of iterations =  2.0

     total cpu time spent up to now is        2.9 secs

     total energy              =    -181.10760438 Ry
     estimated scf accuracy    <       0.16755785 Ry

     iteration # 20     ecut=    50.00 Ry     beta= 0.30
     Davidson diagonalization with overlap
     ethr =  4.63E-04,  avg # of iterations =  1.0

     total cpu time spent up to now is        2.9 secs

     total energy              =    -181.10066100 Ry
     estimated scf accuracy    <       0.05584636 Ry

     iteration # 21     ecut=    50.00 Ry     beta= 0.30
     Davidson diagonalization with overlap
     ethr =  2.15E-04,  avg # of iterations =  2.0

     negative rho (up, down):  8.827E-04 0.000E+00

     total cpu time spent up to now is        2.9 secs

     total energy              =    -181.09823868 Ry
     estimated scf accuracy    <       0.01427897 Ry

     iteration # 22     ecut=    50.00 Ry     beta= 0.30
     Davidson diagonalization with overlap
     ethr =  5.49E-05,  avg # of iterations =  4.0

     negative rho (up, down):  3.259E-05 0.000E+00

     total cpu time spent up to now is        3.0 secs

     total energy              =    -181.10169338 Ry
     estimated scf accuracy    <       0.00471864 Ry

     iteration # 23     ecut=    50.00 Ry     beta= 0.30
     Davidson diagonalization with overlap
     ethr =  1.81E-05,  avg # of iterations =  2.0

     negative rho (up, down):  1.497E-03 0.000E+00

     total cpu time spent up to now is        3.0 secs

     total energy              =    -181.10243241 Ry
     estimated scf accuracy    <       0.00036841 Ry

     iteration # 24     ecut=    50.00 Ry     beta= 0.30
     Davidson diagonalization with overlap
     ethr =  1.42E-06,  avg # of iterations =  2.0

     negative rho (up, down):  7.163E-04 0.000E+00

     total cpu time spent up to now is        3.0 secs

     total energy              =    -181.10243913 Ry
     estimated scf accuracy    <       0.00008326 Ry

     iteration # 25     ecut=    50.00 Ry     beta= 0.30
     Davidson diagonalization with overlap
     ethr =  3.20E-07,  avg # of iterations =  3.0

     negative rho (up, down):  1.183E-04 0.000E+00

     total cpu time spent up to now is        3.0 secs

     total energy              =    -181.10245538 Ry
     estimated scf accuracy    <       0.00002102 Ry

     iteration # 26     ecut=    50.00 Ry     beta= 0.30
     Davidson diagonalization with overlap
     ethr =  8.09E-08,  avg # of iterations =  4.0

     negative rho (up, down):  1.203E-04 0.000E+00

     total cpu time spent up to now is        3.1 secs

     total energy              =    -181.10245835 Ry
     estimated scf accuracy    <       0.00000979 Ry

     iteration # 27     ecut=    50.00 Ry     beta= 0.30
     Davidson diagonalization with overlap
     ethr =  3.77E-08,  avg # of iterations =  2.0

     negative rho (up, down):  1.127E-04 0.000E+00

     total cpu time spent up to now is        3.1 secs

     total energy              =    -181.10245960 Ry
     estimated scf accuracy    <       0.00000062 Ry

     iteration # 28     ecut=    50.00 Ry     beta= 0.30
     Davidson diagonalization with overlap
     ethr =  2.40E-09,  avg # of iterations =  4.0

     negative rho (up, down):  9.748E-05 0.000E+00

     total cpu time spent up to now is        3.1 secs

     total energy              =    -181.10245975 Ry
     estimated scf accuracy    <       0.00000059 Ry

     iteration # 29     ecut=    50.00 Ry     beta= 0.30
     Davidson diagonalization with overlap
     ethr =  2.25E-09,  avg # of iterations =  2.0

     negative rho (up, down):  1.005E-04 0.000E+00

     total cpu time spent up to now is        3.2 secs

     total energy              =    -181.10245980 Ry
     estimated scf accuracy    <       0.00000006 Ry

     iteration # 30     ecut=    50.00 Ry     beta= 0.30
     Davidson diagonalization with overlap
     ethr =  2.17E-10,  avg # of iterations =  4.0

     negative rho (up, down):  1.057E-04 0.000E+00

     total cpu time spent up to now is        3.2 secs

     total energy              =    -181.10245981 Ry
     estimated scf accuracy    <       0.00000003 Ry

     iteration # 31     ecut=    50.00 Ry     beta= 0.30
     Davidson diagonalization with overlap
     ethr =  9.94E-11,  avg # of iterations =  2.0

     negative rho (up, down):  1.089E-04 0.000E+00

     total cpu time spent up to now is        3.2 secs

     End of self-consistent calculation

          k = 0.0000 0.0000 0.0000 (  2690 PWs)   bands (ev):

   -60.2871 -34.6053 -34.6053 -34.1740 -15.0455 -13.3869  -6.1253  -4.1364
    -4.1364  -2.8156  -2.8156  -1.6347   0.6902   1.8076   1.8076   2.3006
     2.3006

     the Fermi energy is     1.2433 ev

!    total energy              =    -181.10245981 Ry
     estimated scf accuracy    <          8.4E-10 Ry
     smearing contrib. (-TS)   =      -0.00000000 Ry
     internal energy E=F+TS    =    -181.10245981 Ry

     The total energy is F=E-TS. E is the sum of the following terms:
     one-electron contribution =    -682.08126355 Ry
     hartree contribution      =     342.13232298 Ry
     xc contribution           =     -29.86390868 Ry
     ewald contribution        =     188.71038945 Ry

     convergence has been achieved in  31 iterations

     negative rho (up, down):  1.089E-04 0.000E+00

     Forces acting on atoms (cartesian axes, Ry/au):

     atom    1 type  1   force =     0.00000000    0.00000000    0.00000000
     atom    2 type  2   force =    -0.00000000    0.00000000   -0.00620126
     atom    3 type  2   force =     0.00000000    0.00000000    0.00620126

     Total force =     0.008770     Total SCF correction =     0.000035


     Computing stress (Cartesian axis) and pressure


     negative rho (up, down):  1.089E-04 0.000E+00
          total   stress  (Ry/bohr**3)                   (kbar)     P=       25.49
   0.00028114   0.00000000   0.00000000           41.36        0.00        0.00
   0.00000000   0.00028114   0.00000000            0.00       41.36        0.00
   0.00000000   0.00000000  -0.00004249            0.00        0.00       -6.25

     Energy error            =      2.4E-02
     Gradient error          =      6.2E-03
     Cell gradient error     =      2.8E-04


     number of scf cycles    =   3
     number of bfgs steps    =   2

     enthalpy old            =    -181.0786265437 Ry
     enthalpy new            =    -181.1024598088 Ry

     CASE: enthalpy_new < enthalpy_old

     new trust radius        =       0.1237892579 bohr
     new conv_thr            =       0.0000000062 Ry

     new unit-cell volume =   1030.37351 a.u.^3 (   152.68560 Ang^3 )
     density =      1.74074 g/cm^3

CELL_PARAMETERS (alat=  6.04712360)
   1.071366638  -0.000000000   0.000000000
  -0.535683319   0.927830725   0.000000000
   0.000000000   0.000000000   4.687500000

ATOMIC_POSITIONS (crystal)
Mo            0.3333333330        0.6666666670        0.5000000000
S             0.6666666670        0.3333333330        0.5943555329
S             0.6666666670        0.3333333330        0.4056444671



     Writing output data file ./tmp/MoS2.save/
     NEW-OLD atomic charge density approx. for the potential

     negative rho (up, down):  1.642E-04 0.000E+00
     extrapolated charge   26.99297, renormalised to   26.00000

     total cpu time spent up to now is        3.4 secs

     Self-consistent Calculation

     iteration #  1     ecut=    50.00 Ry     beta= 0.30
     Davidson diagonalization with overlap
     ethr =  1.00E-06,  avg # of iterations = 20.0

     total cpu time spent up to now is        3.5 secs

     total energy              =    -137.22209967 Ry
     estimated scf accuracy    <      78.63771530 Ry

     iteration #  2     ecut=    50.00 Ry     beta= 0.30
     Davidson diagonalization with overlap
     ethr =  1.00E-02,  avg # of iterations =  8.0

     total cpu time spent up to now is        3.5 secs

     total energy              =    -183.05908142 Ry
     estimated scf accuracy    <      37.02603855 Ry

     iteration #  3     ecut=    50.00 Ry     beta= 0.30
     Davidson diagonalization with overlap
     ethr =  1.00E-02,  avg # of iterations =  4.0

     total cpu time spent up to now is        3.5 secs

     total energy              =    -183.24924687 Ry
     estimated scf accuracy    <       8.85320173 Ry

     iteration #  4     ecut=    50.00 Ry     beta= 0.30
     Davidson diagonalization with overlap
     ethr =  1.00E-02,  avg # of iterations =  2.0

     total cpu time spent up to now is        3.6 secs

     total energy              =    -182.11592429 Ry
     estimated scf accuracy    <       4.84323649 Ry

     iteration #  5     ecut=    50.00 Ry     beta= 0.30
     Davidson diagonalization with overlap
     ethr =  1.00E-02,  avg # of iterations =  2.0

     total cpu time spent up to now is        3.6 secs

     total energy              =    -181.37387436 Ry
     estimated scf accuracy    <       2.66091474 Ry

     iteration #  6     ecut=    50.00 Ry     beta= 0.30
     Davidson diagonalization with overlap
     ethr =  1.00E-02,  avg # of iterations =  1.0

     total cpu time spent up to now is        3.6 secs

     total energy              =    -181.17212143 Ry
     estimated scf accuracy    <       1.58863336 Ry

     iteration #  7     ecut=    50.00 Ry     beta= 0.30
     Davidson diagonalization with overlap
     ethr =  6.11E-03,  avg # of iterations =  1.0

     total cpu time spent up to now is        3.6 secs

     total energy              =    -180.72328648 Ry
     estimated scf accuracy    <       1.17087092 Ry

     iteration #  8     ecut=    50.00 Ry     beta= 0.30
     Davidson diagonalization with overlap
     ethr =  4.50E-03,  avg # of iterations =  2.0

     total cpu time spent up to now is        3.7 secs

     total energy              =    -180.69249820 Ry
     estimated scf accuracy    <       0.40710686 Ry

     iteration #  9     ecut=    50.00 Ry     beta= 0.30
     Davidson diagonalization with overlap
     ethr =  1.57E-03,  avg # of iterations =  7.0

     total cpu time spent up to now is        3.7 secs

     total energy              =    -181.36687168 Ry
     estimated scf accuracy    <       0.48890538 Ry

     iteration # 10     ecut=    50.00 Ry     beta= 0.30
     Davidson diagonalization with overlap
     ethr =  1.57E-03,  avg # of iterations =  1.0

     total cpu time spent up to now is        3.7 secs

     total energy              =    -181.21179518 Ry
     estimated scf accuracy    <       0.50531674 Ry

     iteration # 11     ecut=    50.00 Ry     beta= 0.30
     Davidson diagonalization with overlap
     ethr =  1.57E-03,  avg # of iterations =  9.0

     total cpu time spent up to now is        3.7 secs

     total energy              =    -180.84493220 Ry
     estimated scf accuracy    <       3.77892182 Ry

     iteration # 12     ecut=    50.00 Ry     beta= 0.30
     Davidson diagonalization with overlap
     ethr =  1.57E-03,  avg # of iterations =  6.0

     total cpu time spent up to now is        3.8 secs

     total energy              =    -181.19086489 Ry
     estimated scf accuracy    <       0.66507850 Ry

     iteration # 13     ecut=    50.00 Ry     beta= 0.30
     Davidson diagonalization with overlap
     ethr =  1.57E-03,  avg # of iterations =  2.0

     total cpu time spent up to now is        3.8 secs

     total energy              =    -181.15055892 Ry
     estimated scf accuracy    <       0.50350000 Ry

     iteration # 14     ecut=    50.00 Ry     beta= 0.30
     Davidson diagonalization with overlap
     ethr =  1.57E-03,  avg # of iterations =  1.0

     total cpu time spent up to now is        3.8 secs

     total energy              =    -181.06680275 Ry
     estimated scf accuracy    <       0.31932934 Ry

     iteration # 15     ecut=    50.00 Ry     beta= 0.30
     Davidson diagonalization with overlap
     ethr =  1.23E-03,  avg # of iterations =  7.0

     total cpu time spent up to now is        3.9 secs

     total energy              =    -181.15891667 Ry
     estimated scf accuracy    <       0.07229504 Ry

     iteration # 16     ecut=    50.00 Ry     beta= 0.30
     Davidson diagonalization with overlap
     ethr =  2.78E-04,  avg # of iterations =  2.0

     total cpu time spent up to now is        3.9 secs

     total energy              =    -181.16802827 Ry
     estimated scf accuracy    <       0.16147988 Ry

     iteration # 17     ecut=    50.00 Ry     beta= 0.30
     Davidson diagonalization with overlap
     ethr =  2.78E-04,  avg # of iterations =  1.0

     total cpu time spent up to now is        3.9 secs

     total energy              =    -181.18371641 Ry
     estimated scf accuracy    <       0.13050749 Ry

     iteration # 18     ecut=    50.00 Ry     beta= 0.30
     Davidson diagonalization with overlap
     ethr =  2.78E-04,  avg # of iterations =  2.0

     total cpu time spent up to now is        3.9 secs

     total energy              =    -181.19809272 Ry
     estimated scf accuracy    <       0.22976156 Ry

     iteration # 19     ecut=    50.00 Ry     beta= 0.30
     Davidson diagonalization with overlap
     ethr =  2.78E-04,  avg # of iterations =  1.0

     total cpu time spent up to now is        4.0 secs

     total energy              =    -181.19092927 Ry
     estimated scf accuracy    <       0.18327593 Ry

     iteration # 20     ecut=    50.00 Ry     beta= 0.30
     Davidson diagonalization with overlap
     ethr =  2.78E-04,  avg # of iterations =  1.0

     negative rho (up, down):  1.551E-02 0.000E+00

     total cpu time spent up to now is        4.0 secs

     total energy              =    -181.07320303 Ry
     estimated scf accuracy    <       0.16190313 Ry

     iteration # 21     ecut=    50.00 Ry     beta= 0.30
     Davidson diagonalization with overlap
     ethr =  2.78E-04,  avg # of iterations =  4.0

     negative rho (up, down):  8.348E-03 0.000E+00

     total cpu time spent up to now is        4.0 secs

     total energy              =    -181.10809804 Ry
     estimated scf accuracy    <       0.04980037 Ry

     iteration # 22     ecut=    50.00 Ry     beta= 0.30
     Davidson diagonalization with overlap
     ethr =  1.92E-04,  avg # of iterations =  2.0

     negative rho (up, down):  5.371E-03 0.000E+00

     total cpu time spent up to now is        4.0 secs

     total energy              =    -181.10695588 Ry
     estimated scf accuracy    <       0.00803934 Ry

     iteration # 23     ecut=    50.00 Ry     beta= 0.30
     Davidson diagonalization with overlap
     ethr =  3.09E-05,  avg # of iterations =  3.0

     negative rho (up, down):  2.668E-03 0.000E+00

     total cpu time spent up to now is        4.1 secs

     total energy              =    -181.10893172 Ry
     estimated scf accuracy    <       0.00509409 Ry

     iteration # 24     ecut=    50.00 Ry     beta= 0.30
     Davidson diagonalization with overlap
     ethr =  1.96E-05,  avg # of iterations =  2.0

     negative rho (up, down):  1.218E-03 0.000E+00

     total cpu time spent up to now is        4.1 secs

     total energy              =    -181.10950581 Ry
     estimated scf accuracy    <       0.00003642 Ry

     iteration # 25     ecut=    50.00 Ry     beta= 0.30
     Davidson diagonalization with overlap
     ethr =  1.40E-07,  avg # of iterations =  4.0

     negative rho (up, down):  3.312E-04 0.000E+00

     total cpu time spent up to now is        4.1 secs

     total energy              =    -181.10950327 Ry
     estimated scf accuracy    <       0.00002187 Ry

     iteration # 26     ecut=    50.00 Ry     beta= 0.30
     Davidson diagonalization with overlap
     ethr =  8.41E-08,  avg # of iterations =  2.0

     negative rho (up, down):  1.633E-04 0.000E+00

     total cpu time spent up to now is        4.1 secs

     total energy              =    -181.10950598 Ry
     estimated scf accuracy    <       0.00000348 Ry

     iteration # 27     ecut=    50.00 Ry     beta= 0.30
     Davidson diagonalization with overlap
     ethr =  1.34E-08,  avg # of iterations =  2.0

     negative rho (up, down):  1.893E-04 0.000E+00

     total cpu time spent up to now is        4.2 secs

     total energy              =    -181.10950588 Ry
     estimated scf accuracy    <       0.00000200 Ry

     iteration # 28     ecut=    50.00 Ry     beta= 0.30
     Davidson diagonalization with overlap
     ethr =  7.69E-09,  avg # of iterations =  2.0

     negative rho (up, down):  1.538E-04 0.000E+00

     total cpu time spent up to now is        4.2 secs

     total energy              =    -181.10950607 Ry
     estimated scf accuracy    <       0.00000024 Ry

     iteration # 29     ecut=    50.00 Ry     beta= 0.30
     Davidson diagonalization with overlap
     ethr =  9.38E-10,  avg # of iterations =  4.0

     negative rho (up, down):  1.537E-04 0.000E+00

     total cpu time spent up to now is        4.2 secs

     total energy              =    -181.10950613 Ry
     estimated scf accuracy    <       0.00000009 Ry

     iteration # 30     ecut=    50.00 Ry     beta= 0.30
     Davidson diagonalization with overlap
     ethr =  3.51E-10,  avg # of iterations =  2.0

     negative rho (up, down):  1.544E-04 0.000E+00

     total cpu time spent up to now is        4.2 secs

     total energy              =    -181.10950613 Ry
     estimated scf accuracy    <          8.5E-09 Ry

     iteration # 31     ecut=    50.00 Ry     beta= 0.30
     Davidson diagonalization with overlap
     ethr =  3.29E-11,  avg # of iterations =  3.0

     negative rho (up, down):  1.595E-04 0.000E+00

     total cpu time spent up to now is        4.3 secs

     End of self-consistent calculation

          k = 0.0000 0.0000 0.0000 (  2690 PWs)   bands (ev):

   -60.5708 -34.8914 -34.8914 -34.3867 -14.9225 -13.3559  -6.0165  -4.1818
    -4.1818  -2.9025  -2.9025  -1.6772   0.5613   1.5698   1.5698   1.9913
     1.9913

     the Fermi energy is     1.0594 ev

!    total energy              =    -181.10950613 Ry
     estimated scf accuracy    <          3.0E-09 Ry
     smearing contrib. (-TS)   =      -0.00000002 Ry
     internal energy E=F+TS    =    -181.10950611 Ry

     The total energy is F=E-TS. E is the sum of the following terms:
     one-electron contribution =    -656.97386786 Ry
     hartree contribution      =     329.42307646 Ry
     xc contribution           =     -29.76777984 Ry
     ewald contribution        =     176.20906514 Ry

     convergence has been achieved in  31 iterations

     negative rho (up, down):  1.595E-04 0.000E+00

     Forces acting on atoms (cartesian axes, Ry/au):

     atom    1 type  1   force =    -0.00000000   -0.00000000    0.00000000
     atom    2 type  2   force =     0.00000000    0.00000000   -0.01930708
     atom    3 type  2   force =    -0.00000000   -0.00000000    0.01930708

     Total force =     0.027304     Total SCF correction =     0.000145


     Computing stress (Cartesian axis) and pressure


     negative rho (up, down):  1.595E-04 0.000E+00
          total   stress  (Ry/bohr**3)                   (kbar)     P=        6.19
   0.00011748   0.00000000   0.00000000           17.28        0.00        0.00
   0.00000000   0.00011748   0.00000000            0.00       17.28        0.00
   0.00000000  -0.00000000  -0.00010880            0.00       -0.00      -16.00

     Energy error            =      7.0E-03
     Gradient error          =      1.9E-02
     Cell gradient error     =      1.2E-04


     number of scf cycles    =   4
     number of bfgs steps    =   3

     enthalpy old            =    -181.1024598088 Ry
     enthalpy new            =    -181.1095061252 Ry

     CASE: enthalpy_new < enthalpy_old

     new trust radius        =       0.0766123905 bohr
     new conv_thr            =       0.0000000100 Ry

     new unit-cell volume =   1055.11239 a.u.^3 (   156.35153 Ang^3 )
     density =      1.69993 g/cm^3

CELL_PARAMETERS (alat=  6.04712360)
   1.084151905  -0.000000000   0.000000000
  -0.542075952   0.938903091   0.000000000
   0.000000000   0.000000000   4.687500000

ATOMIC_POSITIONS (crystal)
Mo            0.3333333330        0.6666666670        0.5000000000
S             0.6666666670        0.3333333330        0.5940528312
S             0.6666666670        0.3333333330        0.4059471688



     Writing output data file ./tmp/MoS2.save/
     NEW-OLD atomic charge density approx. for the potential

     negative rho (up, down):  1.912E-04 0.000E+00
     extrapolated charge   26.60959, renormalised to   26.00000

     total cpu time spent up to now is        4.5 secs

     Self-consistent Calculation

     iteration #  1     ecut=    50.00 Ry     beta= 0.30
     Davidson diagonalization with overlap
     c_bands:  1 eigenvalues not converged
     ethr =  1.00E-06,  avg # of iterations = 20.0

     total cpu time spent up to now is        4.5 secs

     total energy              =    -165.63154603 Ry
     estimated scf accuracy    <      27.39606681 Ry

     iteration #  2     ecut=    50.00 Ry     beta= 0.30
     Davidson diagonalization with overlap
     ethr =  1.00E-02,  avg # of iterations =  9.0

     total cpu time spent up to now is        4.6 secs

     total energy              =    -181.45407263 Ry
     estimated scf accuracy    <      18.55931192 Ry

     iteration #  3     ecut=    50.00 Ry     beta= 0.30
     Davidson diagonalization with overlap
     ethr =  1.00E-02,  avg # of iterations =  2.0

     total cpu time spent up to now is        4.6 secs

     total energy              =    -181.30658038 Ry
     estimated scf accuracy    <       4.44130872 Ry

     iteration #  4     ecut=    50.00 Ry     beta= 0.30
     Davidson diagonalization with overlap
     ethr =  1.00E-02,  avg # of iterations =  2.0

     total cpu time spent up to now is        4.6 secs

     total energy              =    -181.09279740 Ry
     estimated scf accuracy    <       1.76910137 Ry

     iteration #  5     ecut=    50.00 Ry     beta= 0.30
     Davidson diagonalization with overlap
     ethr =  6.80E-03,  avg # of iterations =  1.0

     total cpu time spent up to now is        4.6 secs

     total energy              =    -180.89581977 Ry
     estimated scf accuracy    <       1.12850112 Ry

     iteration #  6     ecut=    50.00 Ry     beta= 0.30
     Davidson diagonalization with overlap
     ethr =  4.34E-03,  avg # of iterations =  1.0

     total cpu time spent up to now is        4.7 secs

     total energy              =    -180.62410048 Ry
     estimated scf accuracy    <       0.85079389 Ry

     iteration #  7     ecut=    50.00 Ry     beta= 0.30
     Davidson diagonalization with overlap
     ethr =  3.27E-03,  avg # of iterations =  6.0

     total cpu time spent up to now is        4.7 secs

     total energy              =    -181.30007104 Ry
     estimated scf accuracy    <       0.38796890 Ry

     iteration #  8     ecut=    50.00 Ry     beta= 0.30
     Davidson diagonalization with overlap
     ethr =  1.49E-03,  avg # of iterations =  2.0

     total cpu time spent up to now is        4.7 secs

     total energy              =    -181.32210411 Ry
     estimated scf accuracy    <       0.34942331 Ry

     iteration #  9     ecut=    50.00 Ry     beta= 0.30
     Davidson diagonalization with overlap
     ethr =  1.34E-03,  avg # of iterations =  1.0

     total cpu time spent up to now is        4.7 secs

     total energy              =    -181.37404791 Ry
     estimated scf accuracy    <       0.34345156 Ry

     iteration # 10     ecut=    50.00 Ry     beta= 0.30
     Davidson diagonalization with overlap
     ethr =  1.32E-03,  avg # of iterations =  2.0

     total cpu time spent up to now is        4.8 secs

     total energy              =    -181.00921888 Ry
     estimated scf accuracy    <       0.46278274 Ry

     iteration # 11     ecut=    50.00 Ry     beta= 0.30
     Davidson diagonalization with overlap
     ethr =  1.32E-03,  avg # of iterations =  8.0

     total cpu time spent up to now is        4.8 secs

     total energy              =    -181.02950593 Ry
     estimated scf accuracy    <       1.44013610 Ry

     iteration # 12     ecut=    50.00 Ry     beta= 0.30
     Davidson diagonalization with overlap
     ethr =  1.32E-03,  avg # of iterations =  6.0

     total cpu time spent up to now is        4.8 secs

     total energy              =    -181.12143513 Ry
     estimated scf accuracy    <       0.42565004 Ry

     iteration # 13     ecut=    50.00 Ry     beta= 0.30
     Davidson diagonalization with overlap
     ethr =  1.32E-03,  avg # of iterations =  2.0

     total cpu time spent up to now is        4.8 secs

     total energy              =    -181.10658500 Ry
     estimated scf accuracy    <       0.12032055 Ry

     iteration # 14     ecut=    50.00 Ry     beta= 0.30
     Davidson diagonalization with overlap
     ethr =  4.63E-04,  avg # of iterations =  8.0

     total cpu time spent up to now is        4.9 secs

     total energy              =    -181.12160044 Ry
     estimated scf accuracy    <       0.02444001 Ry

     iteration # 15     ecut=    50.00 Ry     beta= 0.30
     Davidson diagonalization with overlap
     ethr =  9.40E-05,  avg # of iterations =  2.0

     total cpu time spent up to now is        4.9 secs

     total energy              =    -181.12026284 Ry
     estimated scf accuracy    <       0.03364094 Ry

     iteration # 16     ecut=    50.00 Ry     beta= 0.30
     Davidson diagonalization with overlap
     ethr =  9.40E-05,  avg # of iterations =  1.0

     total cpu time spent up to now is        4.9 secs

     total energy              =    -181.11917386 Ry
     estimated scf accuracy    <       0.02618682 Ry

     iteration # 17     ecut=    50.00 Ry     beta= 0.30
     Davidson diagonalization with overlap
     ethr =  9.40E-05,  avg # of iterations =  1.0

     total cpu time spent up to now is        4.9 secs

     total energy              =    -181.11434360 Ry
     estimated scf accuracy    <       0.02451187 Ry

     iteration # 18     ecut=    50.00 Ry     beta= 0.30
     Davidson diagonalization with overlap
     ethr =  9.40E-05,  avg # of iterations =  1.0

     negative rho (up, down):  1.109E-02 0.000E+00

     total cpu time spent up to now is        5.0 secs

     total energy              =    -181.10903317 Ry
     estimated scf accuracy    <       0.01039056 Ry

     iteration # 19     ecut=    50.00 Ry     beta= 0.30
     Davidson diagonalization with overlap
     ethr =  4.00E-05,  avg # of iterations =  3.0

     negative rho (up, down):  8.668E-03 0.000E+00

     total cpu time spent up to now is        5.0 secs

     total energy              =    -181.11233498 Ry
     estimated scf accuracy    <       0.00570349 Ry

     iteration # 20     ecut=    50.00 Ry     beta= 0.30
     Davidson diagonalization with overlap
     ethr =  2.19E-05,  avg # of iterations =  1.0

     negative rho (up, down):  9.835E-04 0.000E+00

     total cpu time spent up to now is        5.0 secs

     total energy              =    -181.11099685 Ry
     estimated scf accuracy    <       0.00238885 Ry

     iteration # 21     ecut=    50.00 Ry     beta= 0.30
     Davidson diagonalization with overlap
     ethr =  9.19E-06,  avg # of iterations =  3.0

     negative rho (up, down):  1.451E-03 0.000E+00

     total cpu time spent up to now is        5.0 secs

     total energy              =    -181.11161451 Ry
     estimated scf accuracy    <       0.00045211 Ry

     iteration # 22     ecut=    50.00 Ry     beta= 0.30
     Davidson diagonalization with overlap
     ethr =  1.74E-06,  avg # of iterations =  2.0

     negative rho (up, down):  3.919E-04 0.000E+00

     total cpu time spent up to now is        5.1 secs

     total energy              =    -181.11166900 Ry
     estimated scf accuracy    <       0.00003142 Ry

     iteration # 23     ecut=    50.00 Ry     beta= 0.30
     Davidson diagonalization with overlap
     ethr =  1.21E-07,  avg # of iterations =  4.0

     negative rho (up, down):  1.265E-04 0.000E+00

     total cpu time spent up to now is        5.1 secs

     total energy              =    -181.11164785 Ry
     estimated scf accuracy    <       0.00007263 Ry

     iteration # 24     ecut=    50.00 Ry     beta= 0.30
     Davidson diagonalization with overlap
     ethr =  1.21E-07,  avg # of iterations =  3.0

     negative rho (up, down):  1.157E-04 0.000E+00

     total cpu time spent up to now is        5.1 secs

     total energy              =    -181.11166518 Ry
     estimated scf accuracy    <       0.00000844 Ry

     iteration # 25     ecut=    50.00 Ry     beta= 0.30
     Davidson diagonalization with overlap
     ethr =  3.25E-08,  avg # of iterations =  2.0

     negative rho (up, down):  1.657E-04 0.000E+00

     total cpu time spent up to now is        5.1 secs

     total energy              =    -181.11166420 Ry
     estimated scf accuracy    <       0.00000351 Ry

     iteration # 26     ecut=    50.00 Ry     beta= 0.30
     Davidson diagonalization with overlap
     ethr =  1.35E-08,  avg # of iterations =  3.0

     negative rho (up, down):  1.688E-04 0.000E+00

     total cpu time spent up to now is        5.2 secs

     total energy              =    -181.11166509 Ry
     estimated scf accuracy    <       0.00000073 Ry

     iteration # 27     ecut=    50.00 Ry     beta= 0.30
     Davidson diagonalization with overlap
     ethr =  2.80E-09,  avg # of iterations =  3.0

     negative rho (up, down):  1.860E-04 0.000E+00

     total cpu time spent up to now is        5.2 secs

     total energy              =    -181.11166528 Ry
     estimated scf accuracy    <       0.00000016 Ry

     iteration # 28     ecut=    50.00 Ry     beta= 0.30
     Davidson diagonalization with overlap
     ethr =  6.23E-10,  avg # of iterations =  1.0

     negative rho (up, down):  1.908E-04 0.000E+00

     total cpu time spent up to now is        5.2 secs

     total energy              =    -181.11166523 Ry
     estimated scf accuracy    <       0.00000011 Ry

     iteration # 29     ecut=    50.00 Ry     beta= 0.30
     Davidson diagonalization with overlap
     ethr =  4.21E-10,  avg # of iterations =  2.0

     negative rho (up, down):  1.885E-04 0.000E+00

     total cpu time spent up to now is        5.2 secs

     End of self-consistent calculation

          k = 0.0000 0.0000 0.0000 (  2690 PWs)   bands (ev):

   -60.7545 -35.0851 -35.0851 -34.5285 -14.9243 -13.3519  -6.0110  -4.3079
    -4.3079  -3.0112  -3.0112  -1.6711   0.5040   1.4098   1.4098   1.8256
     1.8256

     the Fermi energy is     0.9501 ev

!    total energy              =    -181.11166526 Ry
     estimated scf accuracy    <          9.5E-10 Ry
     smearing contrib. (-TS)   =      -0.00000025 Ry
     internal energy E=F+TS    =    -181.11166501 Ry

     The total energy is F=E-TS. E is the sum of the following terms:
     one-electron contribution =    -644.82988928 Ry
     hartree contribution      =     323.23402226 Ry
     xc contribution           =     -29.72920882 Ry
     ewald contribution        =     170.21341082 Ry

     convergence has been achieved in  29 iterations

     negative rho (up, down):  1.885E-04 0.000E+00

     Forces acting on atoms (cartesian axes, Ry/au):

     atom    1 type  1   force =    -0.00000000   -0.00000000    0.00000000
     atom    2 type  2   force =     0.00000000    0.00000000   -0.01651617
     atom    3 type  2   force =     0.00000000    0.00000000    0.01651617

     Total force =     0.023357     Total SCF correction =     0.000070


     Computing stress (Cartesian axis) and pressure


     negative rho (up, down):  1.885E-04 0.000E+00
          total   stress  (Ry/bohr**3)                   (kbar)     P=       -1.15
   0.00003409   0.00000000   0.00000000            5.01        0.00        0.00
   0.00000000   0.00003409   0.00000000            0.00        5.01        0.00
   0.00000000   0.00000000  -0.00009167            0.00        0.00      -13.48

     Energy error            =      2.2E-03
     Gradient error          =      1.7E-02
     Cell gradient error     =      3.4E-05


     number of scf cycles    =   5
     number of bfgs steps    =   4

     enthalpy old            =    -181.1095061252 Ry
     enthalpy new            =    -181.1116652551 Ry

     CASE: enthalpy_new < enthalpy_old

     new trust radius        =       0.0380333351 bohr
     new conv_thr            =       0.0000000100 Ry

     new unit-cell volume =   1067.50273 a.u.^3 (   158.18758 Ang^3 )
     density =      1.68019 g/cm^3

CELL_PARAMETERS (alat=  6.04712360)
   1.090499003  -0.000000000   0.000000000
  -0.545249501   0.944399839   0.000000000
   0.000000000   0.000000000   4.687500000

ATOMIC_POSITIONS (crystal)
Mo            0.3333333330        0.6666666670        0.5000000000
S             0.6666666670        0.3333333330        0.5933021947
S             0.6666666670        0.3333333330        0.4066978053



     Writing output data file ./tmp/MoS2.save/
     NEW-OLD atomic charge density approx. for the potential

     negative rho (up, down):  2.033E-04 0.000E+00
     extrapolated charge   26.30177, renormalised to   26.00000

     total cpu time spent up to now is        5.5 secs

     Self-consistent Calculation

     iteration #  1     ecut=    50.00 Ry     beta= 0.30
     Davidson diagonalization with overlap
     ethr =  1.00E-06,  avg # of iterations = 15.0

     total cpu time spent up to now is        5.5 secs

     total energy              =    -177.48888646 Ry
     estimated scf accuracy    <       6.35718169 Ry

     iteration #  2     ecut=    50.00 Ry     beta= 0.30
     Davidson diagonalization with overlap
     ethr =  1.00E-02,  avg # of iterations =  4.0

     total cpu time spent up to now is        5.6 secs

     total energy              =    -180.70176039 Ry
     estimated scf accuracy    <       8.95204413 Ry

     iteration #  3     ecut=    50.00 Ry     beta= 0.30
     Davidson diagonalization with overlap
     ethr =  1.00E-02,  avg # of iterations =  2.0

     total cpu time spent up to now is        5.6 secs

     total energy              =    -181.27113968 Ry
     estimated scf accuracy    <       0.74505700 Ry

     iteration #  4     ecut=    50.00 Ry     beta= 0.30
     Davidson diagonalization with overlap
     ethr =  2.87E-03,  avg # of iterations =  2.0

     total cpu time spent up to now is        5.6 secs

     total energy              =    -181.17327131 Ry
     estimated scf accuracy    <       0.41466665 Ry

     iteration #  5     ecut=    50.00 Ry     beta= 0.30
     Davidson diagonalization with overlap
     ethr =  1.59E-03,  avg # of iterations =  2.0

     total cpu time spent up to now is        5.6 secs

     total energy              =    -181.15876758 Ry
     estimated scf accuracy    <       0.17460795 Ry

     iteration #  6     ecut=    50.00 Ry     beta= 0.30
     Davidson diagonalization with overlap
     ethr =  6.72E-04,  avg # of iterations =  1.0

     total cpu time spent up to now is        5.6 secs

     total energy              =    -181.14246968 Ry
     estimated scf accuracy    <       0.11606734 Ry

     iteration #  7     ecut=    50.00 Ry     beta= 0.30
     Davidson diagonalization with overlap
     ethr =  4.46E-04,  avg # of iterations =  1.0

     total cpu time spent up to now is        5.7 secs

     total energy              =    -181.13346492 Ry
     estimated scf accuracy    <       0.07809014 Ry

     iteration #  8     ecut=    50.00 Ry     beta= 0.30
     Davidson diagonalization with overlap
     ethr =  3.00E-04,  avg # of iterations =  1.0

     total cpu time spent up to now is        5.7 secs

     total energy              =    -181.12634476 Ry
     estimated scf accuracy    <       0.05593748 Ry

     iteration #  9     ecut=    50.00 Ry     beta= 0.30
     Davidson diagonalization with overlap
     ethr =  2.15E-04,  avg # of iterations =  1.0

     total cpu time spent up to now is        5.7 secs

     total energy              =    -181.12119225 Ry
     estimated scf accuracy    <       0.03850079 Ry

     iteration # 10     ecut=    50.00 Ry     beta= 0.30
     Davidson diagonalization with overlap
     ethr =  1.48E-04,  avg # of iterations =  1.0

     negative rho (up, down):  1.299E-06 0.000E+00

     total cpu time spent up to now is        5.8 secs

     total energy              =    -181.10862194 Ry
     estimated scf accuracy    <       0.02582353 Ry

     iteration # 11     ecut=    50.00 Ry     beta= 0.30
     Davidson diagonalization with overlap
     ethr =  9.93E-05,  avg # of iterations =  2.0

     negative rho (up, down):  9.263E-06 0.000E+00

     total cpu time spent up to now is        5.8 secs

     total energy              =    -181.11220308 Ry
     estimated scf accuracy    <       0.00007350 Ry

     iteration # 12     ecut=    50.00 Ry     beta= 0.30
     Davidson diagonalization with overlap
     ethr =  2.83E-07,  avg # of iterations =  6.0

     negative rho (up, down):  4.805E-07 0.000E+00

     total cpu time spent up to now is        5.8 secs

     total energy              =    -181.11232014 Ry
     estimated scf accuracy    <       0.00019886 Ry

     iteration # 13     ecut=    50.00 Ry     beta= 0.30
     Davidson diagonalization with overlap
     ethr =  2.83E-07,  avg # of iterations =  3.0

     negative rho (up, down):  7.834E-05 0.000E+00

     total cpu time spent up to now is        5.8 secs

     total energy              =    -181.11236633 Ry
     estimated scf accuracy    <       0.00004069 Ry

     iteration # 14     ecut=    50.00 Ry     beta= 0.30
     Davidson diagonalization with overlap
     ethr =  1.56E-07,  avg # of iterations =  3.0

     negative rho (up, down):  7.944E-05 0.000E+00

     total cpu time spent up to now is        5.9 secs

     total energy              =    -181.11238348 Ry
     estimated scf accuracy    <       0.00002632 Ry

     iteration # 15     ecut=    50.00 Ry     beta= 0.30
     Davidson diagonalization with overlap
     ethr =  1.01E-07,  avg # of iterations =  1.0

     negative rho (up, down):  9.005E-05 0.000E+00

     total cpu time spent up to now is        5.9 secs

     total energy              =    -181.11237568 Ry
     estimated scf accuracy    <       0.00003125 Ry

     iteration # 16     ecut=    50.00 Ry     beta= 0.30
     Davidson diagonalization with overlap
     ethr =  1.01E-07,  avg # of iterations =  2.0

     negative rho (up, down):  1.656E-04 0.000E+00

     total cpu time spent up to now is        5.9 secs

     total energy              =    -181.11237389 Ry
     estimated scf accuracy    <       0.00000912 Ry

     iteration # 17     ecut=    50.00 Ry     beta= 0.30
     Davidson diagonalization with overlap
     ethr =  3.51E-08,  avg # of iterations =  4.0

     negative rho (up, down):  1.844E-04 0.000E+00

     total cpu time spent up to now is        5.9 secs

     total energy              =    -181.11237536 Ry
     estimated scf accuracy    <       0.00000192 Ry

     iteration # 18     ecut=    50.00 Ry     beta= 0.30
     Davidson diagonalization with overlap
     ethr =  7.37E-09,  avg # of iterations =  2.0

     negative rho (up, down):  2.032E-04 0.000E+00

     total cpu time spent up to now is        6.0 secs

     total energy              =    -181.11237503 Ry
     estimated scf accuracy    <       0.00000088 Ry

     iteration # 19     ecut=    50.00 Ry     beta= 0.30
     Davidson diagonalization with overlap
     ethr =  3.37E-09,  avg # of iterations =  3.0

     negative rho (up, down):  2.049E-04 0.000E+00

     total cpu time spent up to now is        6.0 secs

     total energy              =    -181.11237529 Ry
     estimated scf accuracy    <       0.00000012 Ry

     iteration # 20     ecut=    50.00 Ry     beta= 0.30
     Davidson diagonalization with overlap
     ethr =  4.63E-10,  avg # of iterations =  2.0

     negative rho (up, down):  2.023E-04 0.000E+00

     total cpu time spent up to now is        6.0 secs

     total energy              =    -181.11237526 Ry
     estimated scf accuracy    <       0.00000009 Ry

     iteration # 21     ecut=    50.00 Ry     beta= 0.30
     Davidson diagonalization with overlap
     ethr =  3.56E-10,  avg # of iterations =  3.0

     negative rho (up, down):  2.022E-04 0.000E+00

     total cpu time spent up to now is        6.0 secs

     End of self-consistent calculation

          k = 0.0000 0.0000 0.0000 (  2690 PWs)   bands (ev):

   -60.8548 -35.1963 -35.1963 -34.6070 -14.9798 -13.3598  -6.0482  -4.4390
    -4.4390  -3.1030  -3.1030  -1.6447   0.4908   1.3204   1.3204   1.7575
     1.7575

     the Fermi energy is     0.8982 ev

!    total energy              =    -181.11237528 Ry
     estimated scf accuracy    <          4.6E-09 Ry
     smearing contrib. (-TS)   =      -0.00000146 Ry
     internal energy E=F+TS    =    -181.11237381 Ry

     The total energy is F=E-TS. E is the sum of the following terms:
     one-electron contribution =    -640.73315009 Ry
     hartree contribution      =     321.11330507 Ry
     xc contribution           =     -29.72261714 Ry
     ewald contribution        =     168.23008835 Ry

     convergence has been achieved in  21 iterations

     negative rho (up, down):  2.022E-04 0.000E+00

     Forces acting on atoms (cartesian axes, Ry/au):

     atom    1 type  1   force =    -0.00000000   -0.00000000    0.00000000
     atom    2 type  2   force =    -0.00000000    0.00000000   -0.00781859
     atom    3 type  2   force =    -0.00000000    0.00000000    0.00781859

     Total force =     0.011057     Total SCF correction =     0.000034


     Computing stress (Cartesian axis) and pressure


     negative rho (up, down):  2.022E-04 0.000E+00
          total   stress  (Ry/bohr**3)                   (kbar)     P=       -2.58
  -0.00000283  -0.00000000   0.00000000           -0.42       -0.00        0.00
  -0.00000000  -0.00000283   0.00000000           -0.00       -0.42        0.00
   0.00000000   0.00000000  -0.00004701            0.00        0.00       -6.91

     Energy error            =      7.1E-04
     Gradient error          =      7.8E-03
     Cell gradient error     =      2.8E-06


     number of scf cycles    =   6
     number of bfgs steps    =   5

     enthalpy old            =    -181.1116652551 Ry
     enthalpy new            =    -181.1123752755 Ry

     CASE: enthalpy_new < enthalpy_old

     new trust radius        =       0.0140711250 bohr
     new conv_thr            =       0.0000000071 Ry

     new unit-cell volume =   1068.94114 a.u.^3 (   158.40073 Ang^3 )
     density =      1.67793 g/cm^3

CELL_PARAMETERS (alat=  6.04712360)
   1.091233452  -0.000000000   0.000000000
  -0.545616726   0.945035891   0.000000000
   0.000000000   0.000000000   4.687500000

ATOMIC_POSITIONS (crystal)
Mo            0.3333333330        0.6666666670        0.5000000000
S             0.6666666670        0.3333333330        0.5928057868
S             0.6666666670        0.3333333330        0.4071942132



     Writing output data file ./tmp/MoS2.save/
     NEW-OLD atomic charge density approx. for the potential

     negative rho (up, down):  2.043E-04 0.000E+00
     extrapolated charge   26.03499, renormalised to   26.00000

     total cpu time spent up to now is        6.3 secs

     Self-consistent Calculation

     iteration #  1     ecut=    50.00 Ry     beta= 0.30
     Davidson diagonalization with overlap
     ethr =  1.00E-06,  avg # of iterations =  5.0

     negative rho (up, down):  1.895E-04 0.000E+00

     total cpu time spent up to now is        6.3 secs

     total energy              =    -181.10793352 Ry
     estimated scf accuracy    <       0.00676019 Ry

     iteration #  2     ecut=    50.00 Ry     beta= 0.30
     Davidson diagonalization with overlap
     ethr =  2.60E-05,  avg # of iterations =  3.0

     negative rho (up, down):  1.914E-04 0.000E+00

     total cpu time spent up to now is        6.3 secs

     total energy              =    -181.11161636 Ry
     estimated scf accuracy    <       0.02615171 Ry

     iteration #  3     ecut=    50.00 Ry     beta= 0.30
     Davidson diagonalization with overlap
     ethr =  2.60E-05,  avg # of iterations =  2.0

     negative rho (up, down):  1.953E-04 0.000E+00

     total cpu time spent up to now is        6.3 secs

     total energy              =    -181.11243549 Ry
     estimated scf accuracy    <       0.00349976 Ry

     iteration #  4     ecut=    50.00 Ry     beta= 0.30
     Davidson diagonalization with overlap
     ethr =  1.35E-05,  avg # of iterations =  2.0

     negative rho (up, down):  2.002E-04 0.000E+00

     total cpu time spent up to now is        6.4 secs

     total energy              =    -181.11246493 Ry
     estimated scf accuracy    <       0.00079154 Ry

     iteration #  5     ecut=    50.00 Ry     beta= 0.30
     Davidson diagonalization with overlap
     ethr =  3.04E-06,  avg # of iterations =  2.0

     negative rho (up, down):  2.033E-04 0.000E+00

     total cpu time spent up to now is        6.4 secs

     total energy              =    -181.11248917 Ry
     estimated scf accuracy    <       0.00013515 Ry

     iteration #  6     ecut=    50.00 Ry     beta= 0.30
     Davidson diagonalization with overlap
     ethr =  5.20E-07,  avg # of iterations =  2.0

     negative rho (up, down):  2.053E-04 0.000E+00

     total cpu time spent up to now is        6.5 secs

     total energy              =    -181.11250177 Ry
     estimated scf accuracy    <       0.00000821 Ry

     iteration #  7     ecut=    50.00 Ry     beta= 0.30
     Davidson diagonalization with overlap
     ethr =  3.16E-08,  avg # of iterations =  4.0

     negative rho (up, down):  2.053E-04 0.000E+00

     total cpu time spent up to now is        6.5 secs

     total energy              =    -181.11250436 Ry
     estimated scf accuracy    <       0.00000040 Ry

     iteration #  8     ecut=    50.00 Ry     beta= 0.30
     Davidson diagonalization with overlap
     ethr =  1.55E-09,  avg # of iterations =  3.0

     negative rho (up, down):  2.050E-04 0.000E+00

     total cpu time spent up to now is        6.5 secs

     total energy              =    -181.11250494 Ry
     estimated scf accuracy    <       0.00000440 Ry

     iteration #  9     ecut=    50.00 Ry     beta= 0.30
     Davidson diagonalization with overlap
     ethr =  1.55E-09,  avg # of iterations =  1.0

     negative rho (up, down):  2.043E-04 0.000E+00

     total cpu time spent up to now is        6.5 secs

     total energy              =    -181.11250389 Ry
     estimated scf accuracy    <       0.00000486 Ry

     iteration # 10     ecut=    50.00 Ry     beta= 0.30
     Davidson diagonalization with overlap
     ethr =  1.55E-09,  avg # of iterations =  3.0

[...]
     estimated scf accuracy    <       0.00000002 Ry

     iteration # 16     ecut=    50.00 Ry     beta= 0.30
     Davidson diagonalization with overlap
     ethr =  7.55E-11,  avg # of iterations =  2.0

     negative rho (up, down):  2.026E-04 0.000E+00

     total cpu time spent up to now is        7.9 secs

     total energy              =    -181.11251719 Ry
     estimated scf accuracy    <       0.00000003 Ry

     iteration # 17     ecut=    50.00 Ry     beta= 0.30
     Davidson diagonalization with overlap
     ethr =  7.55E-11,  avg # of iterations =  2.0

     negative rho (up, down):  2.026E-04 0.000E+00

     total cpu time spent up to now is        7.9 secs

     total energy              =    -181.11251719 Ry
     estimated scf accuracy    <          6.6E-09 Ry

     iteration # 18     ecut=    50.00 Ry     beta= 0.30
     Davidson diagonalization with overlap
     ethr =  2.54E-11,  avg # of iterations =  2.0

     negative rho (up, down):  2.026E-04 0.000E+00

     total cpu time spent up to now is        7.9 secs

     total energy              =    -181.11251719 Ry
     estimated scf accuracy    <       0.00000002 Ry

     iteration # 19     ecut=    50.00 Ry     beta= 0.30
     Davidson diagonalization with overlap
     ethr =  2.54E-11,  avg # of iterations =  1.0

     negative rho (up, down):  2.024E-04 0.000E+00

     total cpu time spent up to now is        7.9 secs

     total energy              =    -181.11251718 Ry
     estimated scf accuracy    <       0.00000002 Ry

     iteration # 20     ecut=    50.00 Ry     beta= 0.30
     Davidson diagonalization with overlap
     ethr =  2.54E-11,  avg # of iterations =  3.0

     negative rho (up, down):  2.024E-04 0.000E+00

     total cpu time spent up to now is        8.0 secs

     total energy              =    -181.11251719 Ry
     estimated scf accuracy    <          4.5E-10 Ry

     iteration # 21     ecut=    50.00 Ry     beta= 0.30
     Davidson diagonalization with overlap
     ethr =  1.71E-12,  avg # of iterations =  3.0

     negative rho (up, down):  2.024E-04 0.000E+00

     total cpu time spent up to now is        8.0 secs

     total energy              =    -181.11251719 Ry
     estimated scf accuracy    <          4.0E-10 Ry

     iteration # 22     ecut=    50.00 Ry     beta= 0.30
     Davidson diagonalization with overlap
     ethr =  1.55E-12,  avg # of iterations =  3.0

     negative rho (up, down):  2.024E-04 0.000E+00

     total cpu time spent up to now is        8.0 secs

     total energy              =    -181.11251719 Ry
     estimated scf accuracy    <          1.1E-10 Ry

     iteration # 23     ecut=    50.00 Ry     beta= 0.30
     Davidson diagonalization with overlap
     ethr =  4.13E-13,  avg # of iterations =  3.0

     negative rho (up, down):  2.024E-04 0.000E+00

     total cpu time spent up to now is        8.0 secs

     End of self-consistent calculation

          k = 0.0000 0.0000 0.0000 (  2690 PWs)   bands (ev):

   -60.8625 -35.2108 -35.2108 -34.6132 -15.0375 -13.3690  -6.0911  -4.5125
    -4.5125  -3.1436  -3.1436  -1.6190   0.5110   1.3113   1.3113   1.7751
     1.7751

     the Fermi energy is     0.9035 ev

!    total energy              =    -181.11251719 Ry
     estimated scf accuracy    <          9.9E-12 Ry
     smearing contrib. (-TS)   =      -0.00000279 Ry
     internal energy E=F+TS    =    -181.11251440 Ry

     The total energy is F=E-TS. E is the sum of the following terms:
     one-electron contribution =    -642.85042519 Ry
     hartree contribution      =     322.15566465 Ry
     xc contribution           =     -29.73612262 Ry
     ewald contribution        =     169.31836877 Ry

     convergence has been achieved in  23 iterations

     negative rho (up, down):  2.024E-04 0.000E+00

     Forces acting on atoms (cartesian axes, Ry/au):

     atom    1 type  1   force =     0.00000000    0.00000000    0.00000000
     atom    2 type  2   force =    -0.00000000    0.00000000    0.00001669
     atom    3 type  2   force =     0.00000000    0.00000000   -0.00001669

     Total force =     0.000024     Total SCF correction =     0.000008
     SCF correction compared to forces is large: reduce conv_thr to get better values


     Computing stress (Cartesian axis) and pressure


     negative rho (up, down):  2.024E-04 0.000E+00
          total   stress  (Ry/bohr**3)                   (kbar)     P=       -0.41
  -0.00000016  -0.00000000   0.00000000           -0.02       -0.00        0.00
  -0.00000000  -0.00000016   0.00000000           -0.00       -0.02        0.00
   0.00000000   0.00000000  -0.00000807            0.00        0.00       -1.19

     Energy error            =      5.3E-07
     Gradient error          =      1.7E-05
     Cell gradient error     =      1.6E-07


     bfgs converged in   9 scf cycles and   8 bfgs steps
     (criteria: energy <  1.0E-05 Ry, force <  1.0E-04Ry/Bohr, cell <  5.0E-02kbar)

     End of BFGS Geometry Optimization

     Final enthalpy =    -181.1125171868 Ry

     File ./tmp/MoS2.bfgs deleted, as requested
Begin final coordinates
     new unit-cell volume =   1066.98454 a.u.^3 (   158.11080 Ang^3 )
     density =      1.68101 g/cm^3

CELL_PARAMETERS (alat=  6.04712360)
   1.090234293  -0.000000000   0.000000000
  -0.545117146   0.944170594   0.000000000
   0.000000000   0.000000000   4.687500000

ATOMIC_POSITIONS (crystal)
Mo            0.3333333330        0.6666666670        0.5000000000
S             0.6666666670        0.3333333330        0.5926706531
S             0.6666666670        0.3333333330        0.4073293469
End final coordinates



     Writing output data file ./tmp/MoS2.save/

     Final scf calculation at the relaxed structure.
     The G-vectors are recalculated for the final unit cell
     Results may differ from those at the preceding step.
 
     Parallelization info
     --------------------
     sticks:   dense  smooth     PW     G-vecs:    dense   smooth      PW
     Min          36      18      4                 4472     1582     188
     Max          38      20      6                 4538     1628     226
     Sum        1189     595    151               143965    51013    6429
 


     bravais-lattice index     =            4
     lattice parameter (alat)  =       6.0471  a.u.
     unit-cell volume          =    1066.9845 (a.u.)^3
     number of atoms/cell      =            3
     number of atomic types    =            2
     number of electrons       =        26.00
     number of Kohn-Sham states=           17
     kinetic-energy cutoff     =      50.0000  Ry
     charge density cutoff     =     400.0000  Ry
     scf convergence threshold =      1.0E-10
     mixing beta               =       0.3000
     number of iterations used =            8  plain     mixing
     press convergence thresh. =      5.0E-02
     Exchange-correlation= PBE
                           (   1   4   3   4   0   0   0)

     celldm(1)=   6.047124  celldm(2)=   0.000000  celldm(3)=   4.687500
     celldm(4)=   0.000000  celldm(5)=   0.000000  celldm(6)=   0.000000

     crystal axes: (cart. coord. in units of alat)
               a(1) = (   1.090234  -0.000000   0.000000 )  
               a(2) = (  -0.545117   0.944171   0.000000 )  
               a(3) = (   0.000000   0.000000   4.687500 )  

     reciprocal axes: (cart. coord. in units 2 pi/alat)
               b(1) = (  0.917234  0.529565  0.000000 )  
               b(2) = (  0.000000  1.059131  0.000000 )  
               b(3) = (  0.000000  0.000000  0.213333 )  


     PseudoPot. # 1 for Mo read from file:
     /public3/home/a2s002871/MoS2/pseudo/Mo.pbe-spn-rrkjus_psl.1.0.0.UPF
     MD5 check sum: 03f09b12e49601d1a456a78ce8b2d514
     Pseudo is Ultrasoft + core correction, Zval = 14.0
     Generated using &quot;atomic&quot; code by A. Dal Corso  v.6.3
     Using radial grid of 1229 points,  6 beta functions with: 
                l(1) =   0
                l(2) =   0
                l(3) =   1
                l(4) =   1
                l(5) =   2
                l(6) =   2
     Q(r) pseudized with 0 coefficients 


     PseudoPot. # 2 for S  read from file:
     /public3/home/a2s002871/MoS2/pseudo/S.pbe-n-rrkjus_psl.1.0.0.UPF
     MD5 check sum: 9d0fe39aa2a799ea84730884c9b010f4
     Pseudo is Ultrasoft + core correction, Zval =  6.0
     Generated using &quot;atomic&quot; code by A. Dal Corso  v.6.3
     Using radial grid of 1151 points,  6 beta functions with: 
                l(1) =   0
                l(2) =   0
                l(3) =   1
                l(4) =   1
                l(5) =   2
                l(6) =   2
     Q(r) pseudized with 0 coefficients 


     atomic species   valence    mass     pseudopotential
        Mo            14.00    95.94000     Mo( 1.00)
        S              6.00    32.06000     S ( 1.00)

     12 Sym. Ops. (no inversion) found



   Cartesian axes

     site n.     atom                  positions (alat units)
         1           Mo  tau(   1) = (  -0.0000000   0.6294471   2.3437500  )
         2           S   tau(   2) = (   0.5451171   0.3147235   2.7781437  )
         3           S   tau(   3) = (   0.5451171   0.3147235   1.9093563  )

     number of k points=     1  Gaussian smearing, width (Ry)=  0.0100
                       cart. coord. in units 2pi/alat
        k(    1) = (   0.0000000   0.0000000   0.0000000), wk =   2.0000000

     Dense  grid:    71983 G-vectors     FFT dimensions: (  45,  45, 192)

     Smooth grid:    25507 G-vectors     FFT dimensions: (  30,  30, 128)

     Estimated max dynamical RAM per process >      15.30 MB

     Estimated total dynamical RAM >     489.71 MB

     Initial potential from superposition of free atoms

     starting charge   25.99905, renormalised to   26.00000

     negative rho (up, down):  2.790E-05 0.000E+00
     Starting wfcs are   18 randomized atomic wfcs

     total cpu time spent up to now is        8.4 secs

     Self-consistent Calculation

     iteration #  1     ecut=    50.00 Ry     beta= 0.30
     Davidson diagonalization with overlap
     ethr =  1.00E-06,  avg # of iterations = 11.0

     negative rho (up, down):  1.969E-05 0.000E+00

     total cpu time spent up to now is        8.4 secs

     total energy              =    -181.04144938 Ry
     estimated scf accuracy    <       0.45802270 Ry

     iteration #  2     ecut=    50.00 Ry     beta= 0.30
     Davidson diagonalization with overlap
     ethr =  1.76E-03,  avg # of iterations =  2.0

     negative rho (up, down):  1.454E-05 0.000E+00

     total cpu time spent up to now is        8.4 secs

     total energy              =    -181.08665299 Ry
     estimated scf accuracy    <       0.30300231 Ry

     iteration #  3     ecut=    50.00 Ry     beta= 0.30
     Davidson diagonalization with overlap
     ethr =  1.17E-03,  avg # of iterations =  1.0

     negative rho (up, down):  7.498E-06 0.000E+00

     total cpu time spent up to now is        8.5 secs

     total energy              =    -181.10862435 Ry
     estimated scf accuracy    <       0.05016301 Ry

     iteration #  4     ecut=    50.00 Ry     beta= 0.30
     Davidson diagonalization with overlap
     ethr =  1.93E-04,  avg # of iterations =  2.0

     negative rho (up, down):  5.809E-06 0.000E+00

     total cpu time spent up to now is        8.5 secs

     total energy              =    -181.11248339 Ry
     estimated scf accuracy    <       0.00818809 Ry

     iteration #  5     ecut=    50.00 Ry     beta= 0.30
     Davidson diagonalization with overlap
     ethr =  3.15E-05,  avg # of iterations =  2.0

     negative rho (up, down):  4.911E-06 0.000E+00

     total cpu time spent up to now is        8.5 secs

     total energy              =    -181.11402763 Ry
     estimated scf accuracy    <       0.00160708 Ry

     iteration #  6     ecut=    50.00 Ry     beta= 0.30
     Davidson diagonalization with overlap
     ethr =  6.18E-06,  avg # of iterations =  4.0

     negative rho (up, down):  5.600E-06 0.000E+00

     total cpu time spent up to now is        8.6 secs

     total energy              =    -181.11431964 Ry
     estimated scf accuracy    <       0.00024637 Ry

     iteration #  7     ecut=    50.00 Ry     beta= 0.30
     Davidson diagonalization with overlap
     ethr =  9.48E-07,  avg # of iterations =  2.0

     negative rho (up, down):  5.779E-06 0.000E+00

     total cpu time spent up to now is        8.6 secs

     total energy              =    -181.11435299 Ry
     estimated scf accuracy    <       0.00008373 Ry

     iteration #  8     ecut=    50.00 Ry     beta= 0.30
     Davidson diagonalization with overlap
     ethr =  3.22E-07,  avg # of iterations =  2.0

     negative rho (up, down):  5.619E-06 0.000E+00

     total cpu time spent up to now is        8.6 secs

     total energy              =    -181.11436590 Ry
     estimated scf accuracy    <       0.00002281 Ry

     iteration #  9     ecut=    50.00 Ry     beta= 0.30
     Davidson diagonalization with overlap
     ethr =  8.77E-08,  avg # of iterations =  2.0

     negative rho (up, down):  5.321E-06 0.000E+00

     total cpu time spent up to now is        8.6 secs

     total energy              =    -181.11436889 Ry
     estimated scf accuracy    <       0.00000269 Ry

     iteration # 10     ecut=    50.00 Ry     beta= 0.30
     Davidson diagonalization with overlap
     ethr =  1.03E-08,  avg # of iterations =  2.0

     negative rho (up, down):  5.337E-06 0.000E+00

     total cpu time spent up to now is        8.7 secs

     total energy              =    -181.11436880 Ry
     estimated scf accuracy    <       0.00000183 Ry

     iteration # 11     ecut=    50.00 Ry     beta= 0.30
     Davidson diagonalization with overlap
     ethr =  7.05E-09,  avg # of iterations =  2.0

     negative rho (up, down):  5.306E-06 0.000E+00

     total cpu time spent up to now is        8.7 secs

     total energy              =    -181.11436901 Ry
     estimated scf accuracy    <       0.00000016 Ry

     iteration # 12     ecut=    50.00 Ry     beta= 0.30
     Davidson diagonalization with overlap
     ethr =  6.24E-10,  avg # of iterations =  3.0

     negative rho (up, down):  5.288E-06 0.000E+00

     total cpu time spent up to now is        8.7 secs

     total energy              =    -181.11436902 Ry
     estimated scf accuracy    <       0.00000008 Ry

     iteration # 13     ecut=    50.00 Ry     beta= 0.30
     Davidson diagonalization with overlap
     ethr =  2.98E-10,  avg # of iterations =  2.0

     negative rho (up, down):  5.263E-06 0.000E+00

     total cpu time spent up to now is        8.8 secs

     total energy              =    -181.11436903 Ry
     estimated scf accuracy    <          4.7E-09 Ry

     iteration # 14     ecut=    50.00 Ry     beta= 0.30
     Davidson diagonalization with overlap
     ethr =  1.79E-11,  avg # of iterations =  4.0

     negative rho (up, down):  5.255E-06 0.000E+00

     total cpu time spent up to now is        8.8 secs

     total energy              =    -181.11436903 Ry
     estimated scf accuracy    <          3.7E-09 Ry

     iteration # 15     ecut=    50.00 Ry     beta= 0.30
     Davidson diagonalization with overlap
     ethr =  1.41E-11,  avg # of iterations =  2.0

     negative rho (up, down):  5.252E-06 0.000E+00

     total cpu time spent up to now is        8.8 secs

     total energy              =    -181.11436903 Ry
     estimated scf accuracy    <          1.5E-09 Ry

     iteration # 16     ecut=    50.00 Ry     beta= 0.30
     Davidson diagonalization with overlap
     ethr =  5.77E-12,  avg # of iterations =  3.0

     negative rho (up, down):  5.240E-06 0.000E+00

     total cpu time spent up to now is        8.8 secs

     End of self-consistent calculation

          k = 0.0000 0.0000 0.0000 (  3215 PWs)   bands (ev):

   -60.8679 -35.2119 -35.2119 -34.6154 -15.0365 -13.3680  -6.0901  -4.5112
    -4.5112  -3.1425  -3.1425  -1.6181   0.5116   1.3122   1.3122   1.7761
     1.7761

     the Fermi energy is     0.9043 ev

!    total energy              =    -181.11436903 Ry
     estimated scf accuracy    <          3.7E-11 Ry
     smearing contrib. (-TS)   =      -0.00000277 Ry
     internal energy E=F+TS    =    -181.11436626 Ry

     The total energy is F=E-TS. E is the sum of the following terms:
     one-electron contribution =    -642.85456734 Ry
     hartree contribution      =     322.15809316 Ry
     xc contribution           =     -29.73626086 Ry
     ewald contribution        =     169.31836877 Ry

     convergence has been achieved in  16 iterations

     negative rho (up, down):  5.240E-06 0.000E+00

     Forces acting on atoms (cartesian axes, Ry/au):

     atom    1 type  1   force =     0.00000000    0.00000000    0.00000000
     atom    2 type  2   force =     0.00000000    0.00000000   -0.00000508
     atom    3 type  2   force =    -0.00000000   -0.00000000    0.00000508

     Total force =     0.000007     Total SCF correction =     0.000012
     SCF correction compared to forces is large: reduce conv_thr to get better values


     Computing stress (Cartesian axis) and pressure


     negative rho (up, down):  5.240E-06 0.000E+00
          total   stress  (Ry/bohr**3)                   (kbar)     P=       -0.46
   0.00000013   0.00000000   0.00000000            0.02        0.00        0.00
   0.00000000   0.00000013  -0.00000000            0.00        0.02       -0.00
   0.00000000   0.00000000  -0.00000970            0.00        0.00       -1.43


     Writing output data file ./tmp/MoS2.save/
 
     init_run     :      0.23s CPU      0.39s WALL (       2 calls)
     electrons    :      5.52s CPU      6.13s WALL (      10 calls)
     update_pot   :      0.47s CPU      0.49s WALL (       8 calls)
     forces       :      0.45s CPU      0.46s WALL (      10 calls)
     stress       :      0.98s CPU      0.99s WALL (      10 calls)

     Called by init_run:
     wfcinit      :      0.01s CPU      0.04s WALL (       2 calls)
     potinit      :      0.04s CPU      0.05s WALL (       2 calls)
     hinit0       :      0.15s CPU      0.24s WALL (       2 calls)

     Called by electrons:
     c_bands      :      1.34s CPU      1.57s WALL (     227 calls)
     sum_band     :      1.57s CPU      1.61s WALL (     227 calls)
     v_of_rho     :      0.93s CPU      0.95s WALL (     237 calls)
     newd         :      1.32s CPU      1.34s WALL (     237 calls)
     mix_rho      :      0.22s CPU      0.23s WALL (     227 calls)

     Called by c_bands:
     init_us_2    :      0.01s CPU      0.02s WALL (     456 calls)
     regterg      :      1.28s CPU      1.33s WALL (     227 calls)

     Called by *egterg:
     rdiaghg      :      0.20s CPU      0.23s WALL (     916 calls)
     h_psi        :      0.96s CPU      1.00s WALL (     926 calls)
     s_psi        :      0.01s CPU      0.01s WALL (     926 calls)
     g_psi        :      0.00s CPU      0.00s WALL (     697 calls)

     Called by h_psi:
     h_psi:calbec :      0.06s CPU      0.06s WALL (     926 calls)
     vloc_psi     :      0.88s CPU      0.92s WALL (     926 calls)
     add_vuspsi   :      0.01s CPU      0.02s WALL (     926 calls)

     General routines
     calbec       :      0.08s CPU      0.08s WALL (    1203 calls)
     fft          :      0.91s CPU      0.93s WALL (    2795 calls)
     ffts         :      0.07s CPU      0.08s WALL (     464 calls)
     fftw         :      0.98s CPU      1.03s WALL (   12885 calls)
     interpolate  :      0.11s CPU      0.12s WALL (     237 calls)
 
     Parallel routines
     fft_scatt_xy :      0.10s CPU      0.11s WALL (   16144 calls)
     fft_scatt_yz :      1.21s CPU      1.25s WALL (   16144 calls)
 
     PWSCF        :      7.92s CPU      9.15s WALL

 
   This run was terminated on:   1:41:42  12Jun2026            

=------------------------------------------------------------------------------=
   JOB DONE.
=------------------------------------------------------------------------------=
